LAMMPS data file via write_data, version 5 Jun 2019, timestep = 24000000

7349 atoms
5 atom types
4899 bonds
2 bond types
2451 angles
2 angle types
1 impropers
1 improper types

1.5519297081455363e-01 4.1845807029189409e+01 xlo xhi
1.5469297081455124e-01 4.1845307029189406e+01 ylo yhi
1.5469297081455124e-01 4.1845307029189406e+01 zlo zhi

#Masses
#
#1 12.01
#2 40.08
#3 1.01
#4 16
#5 16
#
#Bond Coeffs # harmonic
#
#1 20.4246 1.3042
#2 22.965 1.012

Atoms # full

5940 1980 3 4.0999999999999998e-01 9.9682633448943214e+00 1.0028949918174176e+01 3.7091847355507181e+00 4 0 3
7056 2352 3 4.0999999999999998e-01 7.5138657338344714e+00 2.8507200778056458e+00 2.0362773426438316e+00 -4 -1 1
6319 2107 3 4.0999999999999998e-01 1.4595662288718712e+00 8.9477302630781064e-01 6.7802088679894608e+00 3 2 3
686 229 4 -8.1999999999999995e-01 2.5864723420226476e+00 6.3403933281779334e+00 2.3570525408112930e+00 2 -2 -3
139 47 3 4.0999999999999998e-01 2.9387923125507478e+00 1.0127559265507651e+01 7.7984858508494292e-01 -1 3 0
2272 758 3 4.0999999999999998e-01 3.6151541502448858e+00 3.8812395839994664e+00 6.2775161915423894e+00 -2 6 -1
2930 977 4 -8.1999999999999995e-01 6.6742998647041896e+00 5.6549601556051456e+00 2.6170130839600136e-01 0 2 -3
6571 2191 3 4.0999999999999998e-01 2.6083795370866674e+00 1.0257947930469733e+01 3.8457884037544652e+00 4 -1 1
7225 2409 3 4.0999999999999998e-01 9.3658587371217923e+00 3.6684663067542216e+00 1.0211965571738451e+01 -2 1 -2
1192 398 3 4.0999999999999998e-01 1.5601351491050446e+00 1.4861031477086544e+00 1.5616279032979168e+00 4 0 0
1226 409 4 -8.1999999999999995e-01 8.4107943850894902e+00 7.2327488224844041e+00 2.3367931621723841e+00 1 -1 -5
5855 1952 4 -8.1999999999999995e-01 1.0496197371470140e+01 3.2658711079824068e+00 7.4919994069690183e+00 2 2 3
4584 1528 3 4.0999999999999998e-01 8.3019310362406902e+00 1.3531080300160725e+00 9.1651451002748701e+00 3 -2 0
3470 1157 4 -8.1999999999999995e-01 8.5505530475441400e+00 1.2859136236245423e+00 4.9705418737703928e+00 4 -3 -7
699 233 3 4.0999999999999998e-01 1.0515903100312210e+01 2.3250077210358269e-01 1.9636257925267429e+00 0 1 -1
3471 1157 3 4.0999999999999998e-01 7.8721922678798641e+00 1.8297387629369812e+00 5.5767246547246847e+00 4 -3 -7
1973 658 4 -8.1999999999999995e-01 2.4229085429116767e-01 8.9813483534025611e+00 8.4003279407100919e+00 -1 2 2
4778 1593 4 -8.1999999999999995e-01 8.4425818397761638e+00 6.3587521717151052e+00 8.3139246436780194e+00 -1 -1 2
277 93 3 4.0999999999999998e-01 6.7878609841896917e+00 8.9030185596889577e+00 5.7419368519774023e+00 0 -2 3
6668 2223 4 -8.1999999999999995e-01 6.2824255647576726e+00 7.5946321508899937e+00 9.7503086279595639e+00 4 2 -4
1044 348 3 4.0999999999999998e-01 3.0164913835217178e+00 7.4735575381041484e+00 7.0887832308935756e+00 3 1 2
4896 1632 3 4.0999999999999998e-01 1.1743932549113696e+00 1.0075894072710208e+01 9.2151505191680254e+00 -1 -1 3
4909 1637 3 4.0999999999999998e-01 4.8092876330404781e+00 3.0593121591632957e+00 8.2106138159532822e+00 0 2 1
4779 1593 3 4.0999999999999998e-01 8.4151319171038423e+00 5.5826320080381215e+00 8.9542166303371875e+00 -1 -1 2
7055 2352 4 -8.1999999999999995e-01 7.1936225549165638e+00 3.0558767333458707e+00 1.0935972550212025e+00 -4 -1 1
4777 1593 3 4.0999999999999998e-01 7.6960823291430946e+00 7.0339665618078673e+00 8.4797349279954304e+00 -1 -1 2
1225 409 3 4.0999999999999998e-01 9.1238997577754226e+00 7.8834837016709498e+00 2.7421506158232085e+00 1 -1 -5
3469 1157 3 4.0999999999999998e-01 8.9383589095761824e+00 2.0497263505885819e+00 4.4231661643921454e+00 4 -3 -7
2931 977 3 4.0999999999999998e-01 6.8945698219236613e+00 6.5745688157988846e+00 5.2482113167447908e-01 0 2 -3
783 261 3 4.0999999999999998e-01 1.0290155500969476e+01 5.2642415723894169e+00 3.3455245756970444e+00 -1 1 -1
4046 1349 4 -8.1999999999999995e-01 9.8069107129423152e+00 5.0961392224188415e+00 1.3282595430030826e+00 2 -1 -3
7226 2409 4 -8.1999999999999995e-01 9.6372197128533976e+00 4.6548852175210707e+00 1.0481556070580556e+01 -2 1 -2
4583 1528 4 -8.1999999999999995e-01 8.9135718571442197e+00 2.0521534669689703e+00 9.6317015177938430e+00 3 -2 0
6948 2316 3 4.0999999999999998e-01 4.8632992862657236e+00 1.8757959932908647e-01 6.0989926179534821e+00 -2 -1 -1
5203 1735 3 4.0999999999999998e-01 1.7818994676317534e+00 2.6622174802750527e+00 3.7094329785617597e+00 1 3 2
687 229 3 4.0999999999999998e-01 2.0421180924033187e+00 6.2787361641696799e+00 1.4725291976392658e+00 2 -2 -3
4910 1637 4 -8.1999999999999995e-01 5.6706902524081260e+00 3.4120622781274688e+00 8.6443028878198920e+00 0 2 1
7339 2447 3 4.0999999999999998e-01 5.5939640240239425e+00 2.3677623723184578e+00 1.4700437966996978e+00 3 3 -1
4834 1612 3 4.0999999999999998e-01 1.8534347891413316e+00 8.0556666313625609e+00 5.3071268146429897e+00 -2 -1 -2
7340 2447 4 -8.1999999999999995e-01 4.6100070535874655e+00 2.2307910832524933e+00 1.5740437168177832e+00 3 3 -1
6946 2316 3 4.0999999999999998e-01 3.8823204868703245e+00 2.7406885171954420e-01 7.4942556883945635e+00 -2 -1 -1
19 7 3 4.0999999999999998e-01 2.4136183004458993e+00 7.1327238413330889e+00 8.9758108798856835e+00 -5 5 0
6265 2089 3 4.0999999999999998e-01 7.6477126285717487e+00 3.8097826630543361e+00 6.2341757095896586e+00 2 4 0
6321 2107 3 4.0999999999999998e-01 1.6526584136188580e+00 1.1088206232492870e+00 5.2316153022997272e+00 3 2 3
279 93 3 4.0999999999999998e-01 5.4720953756038870e+00 9.8019526236654873e+00 5.2072277782324567e+00 0 -2 3
4836 1612 3 4.0999999999999998e-01 1.9241650665408663e+00 7.7836418700100714e+00 3.6873748076370734e+00 -2 -1 -2
6977 2326 4 -8.1999999999999995e-01 8.7108303445671815e+00 5.2295252909720498e+00 5.9566005278994867e+00 1 2 1
3332 1111 4 -8.1999999999999995e-01 1.8960059991247038e+00 4.0017512814949159e+00 9.2754529522942573e+00 1 -1 -3
7054 2352 3 4.0999999999999998e-01 7.0197456907608018e+00 4.0971556487754226e+00 9.4722289185048314e-01 -4 -1 1
20 7 4 -8.1999999999999995e-01 2.3270692433552465e+00 6.8243565265523145e+00 9.9484030730969124e+00 -5 5 0
6978 2326 3 4.0999999999999998e-01 7.9790569578187398e+00 5.5952520280556532e+00 5.3339278372773773e+00 1 2 1
2432 811 4 -8.1999999999999995e-01 8.2293657541504501e+00 9.3349424840421555e+00 6.0481050908955778e+00 -2 -3 -4
5205 1735 3 4.0999999999999998e-01 2.3757410112629412e-01 2.3674553161957830e+00 4.1366333659609884e+00 1 3 2
278 93 4 -8.1999999999999995e-01 5.7818964786626568e+00 8.8625621210188612e+00 5.5542153470018096e+00 0 -2 3
2431 811 3 4.0999999999999998e-01 8.4424243303096986e+00 1.0186405116675155e+01 5.5814057282086145e+00 -2 -3 -4
7162 2388 3 4.0999999999999998e-01 6.4752206318462235e+00 9.4691479139928632e+00 3.4412360638748329e-01 -2 3 0
140 47 4 -8.1999999999999995e-01 1.9063675294478393e+00 1.0326799467176912e+01 8.9060715747841579e-01 -1 3 0
4047 1349 3 4.0999999999999998e-01 9.2772201505840304e+00 5.9238843610996996e+00 1.5662540803974510e+00 2 -1 -3
6947 2316 4 -8.1999999999999995e-01 4.7472103078776202e+00 6.1197095397532186e-01 7.0513012419229106e+00 -2 -1 -1
6169 2057 3 4.0999999999999998e-01 7.4887397454570497e+00 6.5705349959898989e+00 3.5889152599816820e+00 0 -1 2
5838 1946 3 4.0999999999999998e-01 4.9323412167334162e+00 8.2857924191423979e+00 6.8500405601627037e+00 -4 1 6
478 160 3 4.0999999999999998e-01 4.3158141055985633e+00 7.5773888970026348e+00 2.5535768123916447e+00 -5 2 4
5736 1912 3 4.0999999999999998e-01 3.6610062250286877e+00 3.3209563644643492e+00 4.0830953106840906e-01 2 0 1
5204 1735 4 -8.1999999999999995e-01 1.0664212412535541e+00 1.9169583280300413e+00 3.7322841783524296e+00 1 3 2
6171 2057 3 4.0999999999999998e-01 6.5125031045510280e+00 7.2695499795792822e+00 4.8079340401069626e+00 0 -1 2
126 42 3 4.0999999999999998e-01 6.8869407446142583e-01 3.1515728699090824e+00 9.9199219758735815e+00 -3 -3 0
4582 1528 3 4.0999999999999998e-01 9.6232992518063174e+00 2.3437269356960919e+00 9.0321685395117939e+00 3 -2 0
4911 1637 3 4.0999999999999998e-01 5.4548254984304885e+00 4.1358755327447367e+00 9.3871020298519188e+00 0 2 1
2433 811 3 4.0999999999999998e-01 9.1214834675572671e+00 9.0283908175324914e+00 6.5384123009117312e+00 -2 -3 -4
7164 2388 3 4.0999999999999998e-01 5.8332656371092151e+00 8.7483747800985228e+00 1.6587230215868425e+00 -2 3 0
574 192 3 4.0999999999999998e-01 5.3563738173808542e+00 5.4329537285491165e+00 4.9868029092052613e+00 0 -1 1
2273 758 4 -8.1999999999999995e-01 3.1962264005653820e+00 3.2066815497134025e+00 6.9901002136355288e+00 -2 6 -1
5837 1946 4 -8.1999999999999995e-01 4.4351002703777560e+00 7.7761534929537692e+00 7.6312267781333682e+00 -4 1 6
6160 2054 3 4.0999999999999998e-01 9.3353194757982187e+00 3.7618419516016375e+00 2.3643954459743211e+00 0 1 4
5210 1737 4 -8.1999999999999995e-01 3.3229670688649806e+00 4.0131825494970501e+00 3.3709179571605024e+00 1 1 -1
576 192 3 4.0999999999999998e-01 5.7337208244626305e+00 4.1583475309972648e+00 5.7546017236617342e+00 0 -1 1
7163 2388 4 -8.1999999999999995e-01 6.7023078917004106e+00 8.8005014183140773e+00 1.0654490177264118e+00 -2 3 0
1043 348 4 -8.1999999999999995e-01 1.9722398250194728e+00 7.3557064862015613e+00 6.9687258972794002e+00 3 1 2
5209 1737 3 4.0999999999999998e-01 3.7124448203879230e+00 4.1505943458653141e+00 4.3210398697363868e+00 1 1 -1
3331 1111 3 4.0999999999999998e-01 1.9316706145032656e+00 5.0202506538589615e+00 9.3703391749138163e+00 1 -1 -3
1021 341 3 4.0999999999999998e-01 4.5990990444312857e-01 4.2500076207597086e+00 6.6986076241805179e+00 6 -3 -1
6267 2089 3 4.0999999999999998e-01 6.5386048772347127e+00 3.1742992799404242e+00 7.3492566655438241e+00 2 4 0
5836 1946 3 4.0999999999999998e-01 5.2207535397793592e+00 7.4676813072924357e+00 8.2227347983449359e+00 -4 1 6
6422 2141 4 -8.1999999999999995e-01 6.9696629456511126e+00 6.1687868892556141e-01 8.4109991874140366e+00 -1 0 4
575 192 4 -8.1999999999999995e-01 4.9103470943351750e+00 4.6549102262297302e+00 5.4167202956563321e+00 0 -1 1
6177 2059 3 4.0999999999999998e-01 5.9807484480814725e+00 1.7832648241494380e+00 9.7817298258976688e+00 1 -2 1
6162 2054 3 4.0999999999999998e-01 9.8806511990915702e+00 2.3320499464880000e+00 3.0223403599452530e+00 0 1 4
6320 2107 4 -8.1999999999999995e-01 2.1970638274450094e+00 8.4175392932029403e-01 6.0937886309135916e+00 3 2 3
1227 409 3 4.0999999999999998e-01 7.7383211456091381e+00 7.8151424289632940e+00 1.7995410069855851e+00 1 -1 -5
2274 758 3 4.0999999999999998e-01 3.1273544029087246e+00 2.2068917436076236e+00 6.6073044890895583e+00 -2 6 -1
6161 2054 4 -8.1999999999999995e-01 9.1835482681501137e+00 3.0774538072266155e+00 3.1654918756095083e+00 0 1 4
5854 1952 3 4.0999999999999998e-01 9.8822079765373445e+00 3.3674760997793065e+00 6.7337184317914511e+00 2 2 3
1042 348 3 4.0999999999999998e-01 1.3441248025574264e+00 7.9538220861099473e+00 7.5225822564898186e+00 3 1 2
6266 2089 4 -8.1999999999999995e-01 6.9650758109530315e+00 3.1133409368526097e+00 6.4225893131405387e+00 2 4 0
479 160 4 -8.1999999999999995e-01 4.7817699015328587e+00 8.3942461703076141e+00 2.7913153061763225e+00 -5 2 4
7341 2447 3 4.0999999999999998e-01 4.5232707565719767e+00 1.2634975135673714e+00 1.8587297968626668e+00 3 3 -1
5211 1737 3 4.0999999999999998e-01 4.0362046004808132e+00 3.5812425961477659e+00 2.7534213697531982e+00 1 1 -1
685 229 3 4.0999999999999998e-01 2.7707642299291981e+00 5.3503962245447054e+00 2.7493719061060586e+00 2 -2 -3
480 160 3 4.0999999999999998e-01 4.2286420366380275e+00 8.8924841977417977e+00 3.4489798572616923e+00 -5 2 4
781 261 3 4.0999999999999998e-01 9.9447722728113934e+00 5.3732611491491449e+00 4.8979049981763394e+00 -1 1 -1
3333 1111 3 4.0999999999999998e-01 2.4116890542584692e+00 3.6506124526854418e+00 8.4675228642895028e+00 1 -1 -3
6976 2326 3 4.0999999999999998e-01 8.7832917172172493e+00 5.7796646400225677e+00 6.8517388542764488e+00 1 2 1
6170 2057 4 -8.1999999999999995e-01 6.8601320915885342e+00 6.3968175766431745e+00 4.3728412151230582e+00 0 -1 2
6667 2223 3 4.0999999999999998e-01 5.9649599701970608e+00 6.7497804099404206e+00 1.0298786884508356e+01 4 2 -4
1630 544 3 4.0999999999999998e-01 7.8392988169254743e+00 3.2020723534955664e-01 3.4407027112731399e+00 -1 1 -1
1193 398 4 -8.1999999999999995e-01 9.7932944585047954e-01 1.8996743935154723e+00 7.7362897504582007e-01 4 0 0
4835 1612 4 -8.1999999999999995e-01 1.6390057977133949e+00 8.4555726738119912e+00 4.3878603447012452e+00 -2 -1 -2
3747 1249 3 4.0999999999999998e-01 7.7998802886896201e-01 9.2820488223928805e+00 4.5155044827330282e-01 -1 4 1
6423 2141 3 4.0999999999999998e-01 6.0772895556552884e+00 7.3952339755305307e-01 7.8397887170529001e+00 -1 0 4
7084 2362 3 4.0999999999999998e-01 3.8562700161707357e+00 5.4979735586289822e+00 1.0161981624578605e+01 -2 0 4
4159 1387 3 4.0999999999999998e-01 1.0336052390479423e+01 9.2823524163896671e+00 9.8613200555177745e+00 3 2 -1
6669 2223 3 4.0999999999999998e-01 6.0824575381238120e+00 8.4636189957312684e+00 1.0277394027791299e+01 4 2 -4
6421 2141 3 4.0999999999999998e-01 7.7267784137714290e+00 2.9786545558629030e-01 7.7957174247130032e+00 -1 0 4
2428 810 3 4.0999999999999998e-01 7.6094770875407711e+00 1.0221013535227460e+01 8.2947426421573418e+00 -1 3 0
183 61 3 4.0999999999999998e-01 3.9143969239114434e-01 4.9062512812314116e+00 2.4424863526868254e-01 -4 3 -2
6563 2188 4 -8.1999999999999995e-01 1.0487643493614302e+01 8.5840790286937363e+00 3.5773349611071090e+00 1 4 -4
2740 914 3 4.0999999999999998e-01 5.2422695580457130e+00 1.0384072343522963e+01 1.0404424115238159e+01 0 1 2
124 42 3 4.0999999999999998e-01 3.1391653170594935e-01 1.7219143346931884e+00 1.0548639335540219e+01 -3 -3 0
1194 398 3 4.0999999999999998e-01 4.9545720968439366e-01 1.1667853376256929e+00 2.2637889260946764e-01 4 0 0
4719 1573 3 4.0999999999999998e-01 6.5862419631912212e+00 3.8060566072675481e+00 1.2969820447578202e+01 -3 4 3
1453 485 3 4.0999999999999998e-01 7.7823492954512075e+00 3.9281992415883860e+00 1.4998947805855703e+01 4 3 1
6109 2037 3 4.0999999999999998e-01 6.5216414036243568e+00 9.7403356411866042e+00 1.5012768213997353e+01 -2 -4 -2
6110 2037 4 -8.1999999999999995e-01 5.9477286670792475e+00 1.0422053522522745e+01 1.5597708709592357e+01 -2 -4 -2
6325 2109 3 4.0999999999999998e-01 9.3056355383533109e+00 7.0790028322391354e+00 1.7246914647146838e+01 -6 2 -1
6774 2258 3 4.0999999999999998e-01 4.4467881850965263e+00 1.0537618441236791e+00 1.4502957639404681e+01 -2 -4 0
770 257 4 -8.1999999999999995e-01 2.2133086017733739e+00 7.4679413765986720e+00 1.4882117546783688e+01 3 8 2
2314 772 3 4.0999999999999998e-01 8.2461809600768561e+00 5.5079000542108867e+00 1.3634517708510005e+01 2 -1 2
6176 2059 4 -8.1999999999999995e-01 5.5942638044519475e+00 1.7706891124021378e+00 1.0715820911649550e+01 1 -2 1
7227 2409 3 4.0999999999999998e-01 8.9343958093391063e+00 4.7365243000014132e+00 1.1212692084011751e+01 -2 1 -2
4573 1525 3 4.0999999999999998e-01 7.8387451230624272e+00 1.7805891875330104e-01 1.7917192682236085e+01 -4 3 -1
2624 875 4 -8.1999999999999995e-01 4.7646724709244070e+00 7.3482385538747197e+00 1.3975871022601810e+01 1 -1 0
1454 485 4 -8.1999999999999995e-01 7.9664755405827350e+00 3.9192488331875248e+00 1.6040093706427697e+01 4 3 1
1824 608 3 4.0999999999999998e-01 5.2101724251949770e+00 2.4072969788518686e+00 2.0410890226085101e+01 6 -2 3
3256 1086 3 4.0999999999999998e-01 7.1554789831207293e+00 5.6961810651348301e+00 2.0242566912191439e+01 0 0 -4
6773 2258 4 -8.1999999999999995e-01 3.9231250572247194e+00 1.9245753116367545e+00 1.4635741021837532e+01 -2 -4 0
934 312 3 4.0999999999999998e-01 1.6664896471809225e+00 5.3102611249304230e+00 1.9447432442242601e+01 1 2 -7
1197 399 3 4.0999999999999998e-01 5.0923039100515375e+00 7.6409904132783559e+00 1.8401637488675103e+01 7 -2 -3
6215 2072 4 -8.1999999999999995e-01 4.6688576266806336e+00 3.4987554676765815e+00 1.2602470273640183e+01 -1 0 -2
1873 625 3 4.0999999999999998e-01 2.4393275418569891e+00 2.5040531761978486e+00 1.9600397429100116e+01 2 3 4
5955 1985 3 4.0999999999999998e-01 4.9556320859548347e-01 9.7268061806639838e-01 1.6407755018986528e+01 2 4 -4
4479 1493 3 4.0999999999999998e-01 6.7542992684779133e+00 7.2333312431798342e+00 1.6961171374223259e+01 0 6 2
1010 337 4 -8.1999999999999995e-01 9.0008801206387545e+00 1.3461289500587945e+00 1.6480310941645197e+01 0 1 2
3976 1326 3 4.0999999999999998e-01 9.4682673976996181e+00 1.3455169332391328e+00 1.2582110233891367e+01 1 -3 -2
5083 1695 3 4.0999999999999998e-01 8.9774292562649993e-01 9.8554075139429003e+00 1.4488325184256798e+01 -3 0 -1
509 170 4 -8.1999999999999995e-01 7.1635213716821589e-01 4.9683680505302155e+00 1.5220759856639226e+01 -2 1 5
1874 625 4 -8.1999999999999995e-01 3.4757955929882054e+00 2.6274471367047223e+00 1.9709466739072848e+01 2 3 4
1987 663 3 4.0999999999999998e-01 6.7036533741538074e-01 6.8860481075089313e+00 1.1302896742671679e+01 -1 2 2
4477 1493 3 4.0999999999999998e-01 6.0945712208192795e+00 8.6982267975892373e+00 1.6531957877314561e+01 0 6 2
1385 462 4 -8.1999999999999995e-01 4.5353094895372803e-01 5.8920533724521618e-01 2.0705570111362778e+01 0 6 -5
4478 1493 4 -8.1999999999999995e-01 5.8745463698707487e+00 7.7810750372530997e+00 1.6949530459206329e+01 0 6 2
5535 1845 3 4.0999999999999998e-01 2.2427345467105670e+00 2.0685205544103580e+00 1.4523723680391461e+01 0 0 0
2520 840 3 4.0999999999999998e-01 8.1324350799248908e+00 9.4084387418450621e+00 1.4119323529822699e+01 6 1 -1
3258 1086 3 4.0999999999999998e-01 7.8278181302681418e+00 4.5017282403570533e+00 1.9361004860615957e+01 0 0 -4
1373 458 4 -8.1999999999999995e-01 5.4869164432354767e+00 2.6910049268536498e+00 1.7012130388869497e+01 -1 1 2
4718 1573 4 -8.1999999999999995e-01 7.5610347432098601e+00 3.6450351004321702e+00 1.3253028431085543e+01 -3 4 3
5146 1716 3 4.0999999999999998e-01 2.4556328221992230e+00 8.0364147138515989e+00 1.6332428582206578e+01 2 6 1
6595 2199 3 4.0999999999999998e-01 1.2173754117070608e+00 2.1354774605346933e+00 1.7988602504681413e+01 1 -1 0
6326 2109 4 -8.1999999999999995e-01 8.5069800602924168e+00 6.4252785464682960e+00 1.7122049309573050e+01 -6 2 -1
2518 840 3 4.0999999999999998e-01 7.7617968924376397e+00 7.9599236441695984e+00 1.3569843937403080e+01 6 1 -1
3257 1086 4 -8.1999999999999995e-01 7.7852935850531697e+00 5.5279577207110737e+00 1.9473993504136779e+01 0 0 -4
1011 337 3 4.0999999999999998e-01 1.0010796924119274e+01 1.2467918952853003e+00 1.6581334905196023e+01 0 1 2
4155 1385 3 4.0999999999999998e-01 9.1443381731082418e+00 9.8934734718147848e+00 1.1806063186496633e+01 2 0 -2
3978 1326 3 4.0999999999999998e-01 8.6437577906892056e+00 1.5753155036904403e+00 1.1155543920952391e+01 1 -3 -2
1386 462 3 4.0999999999999998e-01 3.4725729791100929e-01 1.4366991472134454e+00 2.0131492690428093e+01 0 6 -5
5534 1845 4 -8.1999999999999995e-01 1.2558449646929628e+00 2.1485872243830575e+00 1.4792593278972706e+01 0 0 0
2623 875 3 4.0999999999999998e-01 5.3012840447119007e+00 7.6336808531599738e+00 1.4776918437744042e+01 1 -1 0
6570 2190 3 4.0999999999999998e-01 8.4442090420689730e+00 2.2457662505871459e+00 1.8423315522102357e+01 -3 -1 -2
6772 2258 3 4.0999999999999998e-01 4.3556907148883148e+00 2.4367520799001929e+00 1.5453091956240186e+01 -2 -4 0
1854 618 3 4.0999999999999998e-01 8.3690313265116902e+00 1.0482675225159344e+01 2.0802887539180475e+01 -2 8 4
6568 2190 3 4.0999999999999998e-01 7.4363641323682446e+00 2.0076739104458938e+00 1.9715651063172142e+01 -3 -1 -2
3977 1326 4 -8.1999999999999995e-01 8.5444579710244781e+00 1.2901105822177361e+00 1.2185234542995339e+01 1 -3 -2
7086 2362 3 4.0999999999999998e-01 4.6462511291202855e+00 4.6829129541735455e+00 1.1284599353274753e+01 -2 0 4
6045 2015 3 4.0999999999999998e-01 5.2324566658384466e+00 6.3570216021829662e+00 2.0616390414321128e+01 4 -1 0
2519 840 4 -8.1999999999999995e-01 7.3718700968936668e+00 8.8618912178690650e+00 1.3766486166071434e+01 6 1 -1
508 170 3 4.0999999999999998e-01 1.2260160086473313e+00 5.8804863979610111e+00 1.5182381158297376e+01 -2 1 5
4154 1385 4 -8.1999999999999995e-01 9.7810179785936047e+00 9.1563006671147207e+00 1.1586460401724311e+01 2 0 -2
771 257 3 4.0999999999999998e-01 1.4640588956835694e+00 7.8077942565014569e+00 1.4297167957494274e+01 3 8 2
2741 914 4 -8.1999999999999995e-01 5.5992496536253258e+00 9.7700261717223231e+00 1.1130018444705694e+01 0 1 2
1196 399 4 -8.1999999999999995e-01 4.4115344085004464e+00 7.6255101638341243e+00 1.9200195012595401e+01 7 -2 -3
2767 923 3 4.0999999999999998e-01 5.0329416007812871e+00 9.3787362173343070e+00 1.9553216597872936e+01 0 0 -2
5147 1716 4 -8.1999999999999995e-01 2.3670771794762775e+00 8.2562564226004991e+00 1.7366726230849405e+01 2 6 1
2742 914 3 4.0999999999999998e-01 6.3816497622945816e+00 1.0277789042742130e+01 1.1636066751792335e+01 0 1 2
6216 2072 3 4.0999999999999998e-01 4.9148944052445360e+00 2.7957606313316190e+00 1.1902997465357915e+01 -1 0 -2
1823 608 4 -8.1999999999999995e-01 6.0547985586856052e+00 1.9901638423910892e+00 2.0777200676395644e+01 6 -2 3
4717 1573 3 4.0999999999999998e-01 7.8631176506334430e+00 2.6952700153289872e+00 1.2956791217619433e+01 -3 4 3
6214 2072 3 4.0999999999999998e-01 4.1507502493557942e+00 3.0217160729253085e+00 1.3375000886205004e+01 -1 0 -2
4153 1385 3 4.0999999999999998e-01 9.0535441850032594e+00 8.4028730861194063e+00 1.1486527518118388e+01 2 0 -2
6993 2331 3 4.0999999999999998e-01 8.2419460019069724e-01 8.2328040229397565e+00 1.7899183259674018e+01 3 -3 -2
21 7 3 4.0999999999999998e-01 2.8209436317703585e+00 7.3765198403528744e+00 1.0711499503241805e+01 -5 5 0
48 16 3 4.0999999999999998e-01 9.3107482350558470e+00 2.4372145160021388e+00 2.0596497193250002e+01 3 7 4
1372 458 3 4.0999999999999998e-01 6.3351700878894519e+00 3.2293869122551033e+00 1.6734528324667004e+01 -1 1 2
2768 923 4 -8.1999999999999995e-01 5.1191057544222822e+00 1.0082794394987522e+01 2.0296603612523437e+01 0 0 -2
5533 1845 3 4.0999999999999998e-01 1.2551852911408783e+00 3.2170540058543868e+00 1.4871632518637496e+01 0 0 0
769 257 3 4.0999999999999998e-01 3.1332407328958789e+00 7.4229984992956730e+00 1.4384989481718883e+01 3 8 2
6596 2199 4 -8.1999999999999995e-01 1.0682094988584754e+00 2.6854809422705310e+00 1.8876471297291769e+01 1 -1 0
6327 2109 3 4.0999999999999998e-01 8.2536787899133710e+00 6.0154515830241913e+00 1.8057880222863275e+01 -6 2 -1
1204 402 3 4.0999999999999998e-01 4.0121253984926275e+00 9.0045081284813424e+00 1.1687304380819944e+01 -1 -3 2
6597 2199 3 4.0999999999999998e-01 5.7561408763855459e-01 3.5656254226729565e+00 1.8694943061141892e+01 1 -1 0
2315 772 4 -8.1999999999999995e-01 8.3259800255612113e+00 6.5077768499659410e+00 1.3587954578316843e+01 2 -1 2
936 312 3 4.0999999999999998e-01 1.9916084256009154e+00 6.4213626279474010e+00 2.0665889998486083e+01 1 2 -7
935 312 4 -8.1999999999999995e-01 1.5051350875209066e+00 5.5257286170224926e+00 2.0432617921424654e+01 1 2 -7
1205 402 4 -8.1999999999999995e-01 3.3541054272907611e+00 8.2939671930928593e+00 1.1966955703510092e+01 -1 -3 2
6312 2104 3 4.0999999999999998e-01 1.0095313064502974e+01 5.0715267877368611e+00 1.7547246804413490e+01 2 3 0
1455 485 3 4.0999999999999998e-01 8.3492150539039827e+00 4.8164285092688823e+00 1.6257105459272545e+01 4 3 1
2316 772 3 4.0999999999999998e-01 9.2574587519186693e+00 6.7047549309538326e+00 1.4020914594370662e+01 2 -1 2
2625 875 3 4.0999999999999998e-01 5.3206162036838984e+00 7.3227608359119056e+00 1.3149974277530545e+01 1 -1 0
1195 399 3 4.0999999999999998e-01 3.4622046322642728e+00 7.4448004011380240e+00 1.8860417009688021e+01 7 -2 -3
5148 1716 3 4.0999999999999998e-01 3.0081811469237576e+00 8.9922907401252061e+00 1.7729770612180250e+01 2 6 1
1374 458 3 4.0999999999999998e-01 5.6753506167307526e+00 1.8003960967230528e+00 1.7517121284040382e+01 -1 1 2
1206 402 3 4.0999999999999998e-01 3.6827456760733179e+00 7.8563732942156497e+00 1.2848885139426876e+01 -1 -3 2
1875 625 3 4.0999999999999998e-01 3.8969503926417657e+00 2.5320065993836560e+00 1.8770250320127310e+01 2 3 4
3584 1195 4 -8.1999999999999995e-01 9.4207693510484045e+00 1.0523073035867903e+01 1.4634527355060165e+01 -8 6 3
6569 2190 4 -8.1999999999999995e-01 8.2928623550705947e+00 2.4843753482822910e+00 1.9354722182174932e+01 -3 -1 -2
1009 337 3 4.0999999999999998e-01 8.8359506329689790e+00 2.2587085195692231e+00 1.6177714082754136e+01 0 1 2
7085 2362 4 -8.1999999999999995e-01 4.8185203759148356e+00 5.3913993581106903e+00 1.0582638433380767e+01 -2 0 4
6175 2059 3 4.0999999999999998e-01 5.6645490767804620e+00 7.8083935544125449e-01 1.0981405512880158e+01 1 -2 1
1598 533 4 -8.1999999999999995e-01 2.3699965557907836e+00 8.0463288604385710e+00 2.5652446689693807e+01 -3 1 -1
1564 522 3 4.0999999999999998e-01 4.1060054609873751e+00 1.4107251787705395e+00 2.7116533537488163e+01 4 -3 -2
5136 1712 3 4.0999999999999998e-01 5.4845012023732342e-01 1.0093992019086462e+01 3.0901857279006226e+01 1 3 -7
3227 1076 4 -8.1999999999999995e-01 7.5086520175212979e+00 6.1234658688305839e+00 3.0126855719637891e+01 1 0 1
3228 1076 3 4.0999999999999998e-01 7.8446631329464536e+00 5.5328553362623358e+00 2.9392182538453341e+01 1 0 1
2232 744 3 4.0999999999999998e-01 2.7604642724368728e-01 2.7916792780060207e+00 2.5120364077115990e+01 -1 -2 3
5448 1816 3 4.0999999999999998e-01 2.6615512008388458e+00 4.6802059992969838e+00 2.7934265959891679e+01 -7 1 1
2562 854 3 4.0999999999999998e-01 2.4174868941159842e+00 8.8620553292015760e+00 2.1609307381548970e+01 -1 -7 0
5948 1983 4 -8.1999999999999995e-01 6.3272140355597575e+00 2.5230206357346137e+00 3.0212516349792292e+01 3 1 4
3420 1140 3 4.0999999999999998e-01 3.7179649766993350e-01 4.4008031587727796e+00 2.1502008160760962e+01 0 4 2
2434 812 3 4.0999999999999998e-01 8.7048553384977829e+00 2.2575508024778976e+00 2.3942920611833625e+01 2 1 -2
2849 950 4 -8.1999999999999995e-01 7.4723114089240150e+00 2.5377635778737151e-01 2.9164737595003395e+01 -2 0 -2
5087 1696 4 -8.1999999999999995e-01 1.0266990826330550e+01 5.5387581548072840e+00 3.1302051127011410e+01 2 1 5
4370 1457 4 -8.1999999999999995e-01 3.6899715075575652e+00 8.4916670693644729e+00 2.8554130441453403e+01 -2 5 1
5596 1866 3 4.0999999999999998e-01 5.0841781127345751e+00 8.3361528107173299e+00 2.8949079936678050e+01 -4 1 1
5154 1718 3 4.0999999999999998e-01 9.1911215649474176e+00 5.9916404566249373e+00 2.6937504922869834e+01 -3 -1 1
6043 2015 3 4.0999999999999998e-01 5.4683123578487578e+00 5.9964905486709581e+00 2.2187397812957293e+01 4 -1 0
2119 707 3 4.0999999999999998e-01 9.1062109329235419e+00 4.2919089375629316e+00 2.4256789625111814e+01 0 6 1
6217 2073 3 4.0999999999999998e-01 5.3790299096884180e+00 8.9173941224980986e+00 3.0942304830362971e+01 0 2 0
3729 1243 3 4.0999999999999998e-01 4.8663615508775520e+00 3.7249871757289266e+00 2.9703716422460946e+01 -3 4 -1
4534 1512 3 4.0999999999999998e-01 3.0527819909478948e+00 3.3850450089722350e-01 2.4236213868822617e+01 6 2 1
3830 1277 4 -8.1999999999999995e-01 2.7561450875173041e+00 5.8654450711903987e+00 2.3310171131389488e+01 1 3 -2
4659 1553 3 4.0999999999999998e-01 9.0813683448814366e+00 3.1455096687525858e-01 3.0134213748301121e+01 1 3 1
731 244 4 -8.1999999999999995e-01 5.7767676393256484e-01 4.5148587599341576e+00 2.7579384234913878e+01 -4 -1 -3
4946 1649 4 -8.1999999999999995e-01 2.6202080294611640e+00 3.0839409369967652e+00 2.2255196914237828e+01 -3 4 3
2560 854 3 4.0999999999999998e-01 9.4000520689522626e-01 8.1847851448845184e+00 2.2129349946583812e+01 -1 -7 0
6833 2278 4 -8.1999999999999995e-01 5.2246944733471956e+00 7.1092272915841743e+00 2.3734148315673274e+01 0 2 3
1565 522 4 -8.1999999999999995e-01 4.4804847145191813e+00 2.1990358587190899e+00 2.6644790195486848e+01 4 -3 -2
4968 1656 3 4.0999999999999998e-01 1.0244651712452031e+01 1.8564241913753294e+00 2.7174278806209408e+01 -1 -1 -1
3829 1277 3 4.0999999999999998e-01 2.6275832464798743e+00 4.9303896589401059e+00 2.2852995960090404e+01 1 3 -2
6044 2015 4 -8.1999999999999995e-01 5.9123112537268181e+00 5.9732555496323263e+00 2.1280642515355765e+01 4 -1 0
1364 455 4 -8.1999999999999995e-01 5.6394284761060378e+00 5.8027308197649248e+00 2.5956350593234149e+01 -3 2 -1
4266 1422 3 4.0999999999999998e-01 4.1494314663613208e-01 8.1774643503471844e-01 3.1250501851683214e+01 -2 -2 -1
1599 533 3 4.0999999999999998e-01 1.5809868829159530e+00 7.6225052005958522e+00 2.6161300359574639e+01 -3 1 -1
5135 1712 4 -8.1999999999999995e-01 7.1321919740652850e-01 1.0456769355229383e+01 2.9930197039336239e+01 1 3 -7
4369 1457 3 4.0999999999999998e-01 3.1905748486769214e+00 8.0823592598059317e+00 2.9338603934022835e+01 -2 5 1
790 264 3 4.0999999999999998e-01 8.0369502405919082e+00 7.7266901296978379e+00 2.6426956617882112e+01 -5 3 -4
3160 1054 3 4.0999999999999998e-01 1.0386222881442055e+01 8.3247013683888103e+00 2.6999889626286745e+01 2 -3 3
5446 1816 3 4.0999999999999998e-01 3.5224290603035500e+00 3.6622255516217050e+00 2.6893523345822139e+01 -7 1 1
97 33 3 4.0999999999999998e-01 1.2252343618454495e+00 5.8640887384552753e+00 3.0333029194528841e+01 -2 0 3
730 244 3 4.0999999999999998e-01 8.2035168278394954e-01 3.9763289851554577e+00 2.6726648735812955e+01 -4 -1 -3
6307 2103 3 4.0999999999999998e-01 9.7113305733565092e+00 1.0001561237843157e+01 2.3516381044533503e+01 -4 -1 5
5597 1866 4 -8.1999999999999995e-01 6.1039953936345981e+00 8.0463671047502494e+00 2.9125049285463867e+01 -4 1 1
1822 608 3 4.0999999999999998e-01 6.3151133655716070e+00 2.4669371140258458e+00 2.1611209873193861e+01 6 -2 3
3352 1118 3 4.0999999999999998e-01 1.0072579816697838e+01 9.2874979691085944e+00 2.8311383315758761e+01 0 1 4
6080 2027 4 -8.1999999999999995e-01 8.9077325588009213e+00 4.5808659183979463e+00 2.8148197763894025e+01 0 0 3
792 264 3 4.0999999999999998e-01 6.4731554790903596e+00 7.4146772117847171e+00 2.5994674760647143e+01 -5 3 -4
4371 1457 3 4.0999999999999998e-01 3.1396019902834023e+00 8.5031022455292860e+00 2.7685924249719644e+01 -2 5 1
6558 2186 3 4.0999999999999998e-01 3.2777252604061484e+00 7.2223177043394182e-01 2.9311165432169894e+01 0 -2 -1
5447 1816 4 -8.1999999999999995e-01 3.3465663420963878e+00 4.6655284891199571e+00 2.7151772679152192e+01 -7 1 1