LAMMPS data file via write_data, version 5 Jun 2019, timestep = 14000000

7349 atoms
5 atom types
4899 bonds
2 bond types
2451 angles
2 angle types
1 impropers
1 improper types

1.5519297081455363e-01 4.1845807029189409e+01 xlo xhi
1.5469297081455124e-01 4.1845307029189406e+01 ylo yhi
1.5469297081455124e-01 4.1845307029189406e+01 zlo zhi

#Masses
#
#1 12.01
#2 40.08
#3 1.01
#4 16
#5 16
#
#Bond Coeffs # harmonic
#
#1 20.4246 1.3042
#2 22.965 1.012

Atoms # full

1371 457 3 4.0999999999999998e-01 2.4096254715066152e+00 7.8463220173279149e+00 8.8773358482170543e+00 0 4 3
4356 1452 3 4.0999999999999998e-01 1.2406411838882656e+00 7.2892739670921918e+00 7.0708128822259597e-01 -1 -1 2
7159 2387 3 4.0999999999999998e-01 8.7451753202891780e-01 9.0940052052022313e+00 4.5103320610806765e+00 1 0 3
7160 2387 4 -8.1999999999999995e-01 2.9085869440728795e-01 8.3113149238731783e+00 4.1512556229764588e+00 1 0 3
5319 1773 3 4.0999999999999998e-01 3.4787348160545433e+00 2.6469350649772685e+00 1.2395161858339852e+00 1 1 0
7211 2404 4 -8.1999999999999995e-01 2.7313919064201447e-01 5.2038571836692507e+00 2.9950516363224522e+00 -5 1 1
5038 1680 3 4.0999999999999998e-01 8.6085425520769221e-01 9.7288676849992353e+00 9.5384991603818858e-01 1 5 0
549 183 3 4.0999999999999998e-01 8.5395098969108503e+00 3.5156210711471330e+00 6.8977586028968085e+00 1 1 -1
1996 666 3 4.0999999999999998e-01 7.4717539304707090e+00 1.0459840442813060e+00 4.1645019788477446e+00 -1 -1 -3
3610 1204 3 4.0999999999999998e-01 9.9193071542390587e+00 7.7147335038668574e-01 4.4585848860544370e+00 1 -1 0
1672 558 3 4.0999999999999998e-01 8.6033546120893618e+00 9.0446928575041454e+00 9.6621514250442324e+00 -1 1 4
4009 1337 3 4.0999999999999998e-01 3.2585141841348255e+00 3.0119425006387170e+00 1.0163638145099229e+01 1 4 -5
3394 1132 3 4.0999999999999998e-01 9.2838462571683102e+00 9.1495836150733183e+00 3.8005462638515453e+00 0 3 -2
1705 569 3 4.0999999999999998e-01 4.0788219289869847e+00 5.4695132284382595e+00 5.2348457515564153e+00 0 0 0
5318 1773 4 -8.1999999999999995e-01 3.8458431593186035e+00 1.9269627048540479e+00 6.4632851368472077e-01 1 1 0
6152 2051 4 -8.1999999999999995e-01 6.1246651421343614e+00 9.7208512588450429e+00 3.1991673095311439e+00 2 1 -1
6151 2051 3 4.0999999999999998e-01 7.1805019591406323e+00 9.5883561867465570e+00 3.1890239416422017e+00 2 1 -1
3612 1204 3 4.0999999999999998e-01 8.8301341569979819e+00 1.4240940256685528e+00 5.3955175765409438e+00 1 -1 0
2049 683 3 4.0999999999999998e-01 1.6039847696898530e+00 3.8625306295713751e+00 7.1210601371043811e+00 1 -2 -3
5520 1840 3 4.0999999999999998e-01 8.7181713833987349e+00 7.3984980631707087e+00 5.4418540006872886e+00 2 -2 4
3395 1132 4 -8.1999999999999995e-01 8.8917313467418975e+00 9.9659231550131544e+00 3.3366228089653669e+00 0 3 -2
923 308 4 -8.1999999999999995e-01 4.8580130821828176e+00 7.8533061264743962e+00 7.3575227034735171e+00 1 4 -1
1369 457 3 4.0999999999999998e-01 2.1690313483832915e+00 6.2507950583969292e+00 8.8093852884879578e+00 0 4 3
4011 1337 3 4.0999999999999998e-01 3.1020204508759535e+00 4.0728922063695263e+00 8.8881702841569314e+00 1 4 -5
5677 1893 3 4.0999999999999998e-01 8.4532555385284862e+00 1.0297933376144629e+01 5.5243228954060097e-01 1 1 1
6676 2226 3 4.0999999999999998e-01 7.6292822406320422e+00 4.8621653193406233e+00 9.1175167359480973e+00 0 3 2
5150 1717 4 -8.1999999999999995e-01 3.9134320953306330e+00 4.7838560011063735e-01 3.0834576705883738e+00 4 0 3
4101 1367 3 4.0999999999999998e-01 5.6607676754902858e+00 1.5560099001854080e+00 6.0286263992288469e-01 5 0 0
2226 742 3 4.0999999999999998e-01 7.1897099850863473e+00 4.9681598061192567e+00 4.3140223120561005e+00 1 4 5
597 199 3 4.0999999999999998e-01 7.6375577942463035e+00 1.0023620380868664e+01 8.3178327699189083e+00 -1 1 0
1707 569 3 4.0999999999999998e-01 4.7436895065536513e+00 3.9453396161980403e+00 4.8660984731908359e+00 0 0 0
6153 2051 3 4.0999999999999998e-01 5.7966373106056324e+00 1.0085394252537796e+01 2.2917510139522910e+00 2 1 -1
922 308 3 4.0999999999999998e-01 4.3467054372255571e+00 7.9992174269392153e+00 6.4946883577760994e+00 1 4 -1
2224 742 3 4.0999999999999998e-01 6.5767993364876398e+00 4.4986659230170929e+00 2.8024019458909564e+00 1 4 5
1730 577 4 -8.1999999999999995e-01 5.7404967326039982e+00 1.4755592440294696e+00 9.2345498014281482e+00 4 0 1
548 183 4 -8.1999999999999995e-01 8.4807348900011181e+00 2.9062585347539249e+00 6.1095131250494941e+00 1 1 -1
924 308 3 4.0999999999999998e-01 4.2536703314406896e+00 7.1715096061298942e+00 7.8678129006122441e+00 1 4 -1
7312 2438 3 4.0999999999999998e-01 1.0465089048064700e+01 3.9945560076482728e-01 8.9134036799315499e+00 -3 1 0
596 199 4 -8.1999999999999995e-01 8.4466679600658772e+00 1.0383223912769990e+01 8.7783986760848460e+00 -1 1 0
1831 611 3 4.0999999999999998e-01 4.5288844375853996e+00 6.7332094191855569e+00 2.7300619549762555e+00 -1 2 1
1997 666 4 -8.1999999999999995e-01 6.5888574865821807e+00 1.2645784109886062e+00 3.6994191848620579e+00 -1 -1 -3
4099 1367 3 4.0999999999999998e-01 6.4745033181871579e+00 1.0466602421426616e+00 1.9676110132005864e+00 5 0 0
5358 1786 3 4.0999999999999998e-01 1.6700877244473424e+00 4.2225596606027098e+00 2.3043679610671424e+00 1 4 4
5357 1786 4 -8.1999999999999995e-01 2.6267898644652776e+00 3.8011395128667886e+00 2.3046206088569101e+00 1 4 4
5519 1840 4 -8.1999999999999995e-01 9.4279457972511569e+00 7.6358656878942810e+00 4.6887610577044470e+00 2 -2 4
6240 2080 3 4.0999999999999998e-01 2.8754900621353224e-01 8.3685844086329997e+00 7.6749700057796986e+00 5 0 -1
2619 873 3 4.0999999999999998e-01 7.6601180082036331e+00 2.3638371605471664e+00 2.3777440382214837e-01 2 1 1
1833 611 3 4.0999999999999998e-01 5.1033832498444260e+00 8.1473225111795458e+00 3.4352942760492469e+00 -1 2 1
2617 873 3 4.0999999999999998e-01 7.4060885548206707e+00 4.1090665013239684e+00 3.3515307789727494e-01 2 1 1
3856 1286 3 4.0999999999999998e-01 8.2329633456949853e+00 6.2880551573911490e+00 7.3234050218629196e+00 -3 0 6
1731 577 3 4.0999999999999998e-01 4.9105598943259601e+00 2.0722532204401856e+00 9.2179045151068895e+00 4 0 1
595 199 3 4.0999999999999998e-01 9.0792722063075075e+00 1.0568605420312002e+01 7.9787686863404952e+00 -1 1 0
1998 666 3 4.0999999999999998e-01 6.5316868302700648e+00 2.3015395047523954e+00 3.6607500241590389e+00 -1 -1 -3
5149 1717 3 4.0999999999999998e-01 3.6901630727800270e+00 1.0621452475671265e+00 2.2734518458671955e+00 4 0 3
4010 1337 4 -8.1999999999999995e-01 3.7669287755552752e+00 3.4982513995771432e+00 9.4348653768307411e+00 1 4 -5
6677 2226 4 -8.1999999999999995e-01 8.2679318715972698e+00 4.7037925751506338e+00 8.3591366654876875e+00 0 3 2
995 332 4 -8.1999999999999995e-01 1.9258625883544982e+00 1.0359933003411857e+01 4.7232035739849936e+00 -1 -2 0
1706 569 4 -8.1999999999999995e-01 3.8712622441239160e+00 4.4810125844466322e+00 5.0370521849684966e+00 0 0 0
1715 572 4 -8.1999999999999995e-01 9.0494995495153052e-01 2.1309344258660938e+00 7.0118697028061989e+00 0 -2 1
3072 1024 3 4.0999999999999998e-01 1.0109380566259738e+01 8.2658071457519178e+00 9.6129738711276094e+00 0 2 0
4100 1367 4 -8.1999999999999995e-01 6.4760327789902625e+00 9.9278283339775486e-01 9.0995520867330593e-01 5 0 0
5356 1786 3 4.0999999999999998e-01 2.8796095936092763e+00 3.7711346442881690e+00 3.3056136345388585e+00 1 4 4
4670 1557 4 -8.1999999999999995e-01 6.6972447879107575e+00 5.3605827657076555e+00 9.9016251326759031e-01 -2 2 -3
2501 834 4 -8.1999999999999995e-01 2.1792437584530435e+00 1.0150742012383956e+01 1.0013624352049929e+01 -6 3 -1
4892 1631 4 -8.1999999999999995e-01 2.6211404789014958e+00 7.0350062127512203e+00 5.4828731751350954e+00 1 0 -1
6678 2226 3 4.0999999999999998e-01 9.1562156279828404e+00 4.4264925658049652e+00 8.7146020119752396e+00 0 3 2
3308 1103 4 -8.1999999999999995e-01 5.7149253281458501e+00 1.0475369893739988e+01 8.1921257182535747e+00 1 2 -1
2048 683 4 -8.1999999999999995e-01 1.9001397140918963e+00 4.8020268635647030e+00 7.3563921572611788e+00 1 -2 -3
5151 1717 3 4.0999999999999998e-01 4.9399649462296935e+00 6.0275069517631796e-01 3.3323442486907595e+00 4 0 3
3857 1286 4 -8.1999999999999995e-01 7.9696299998738516e+00 7.1213591362549602e+00 6.7720741002691733e+00 -3 0 6
4229 1410 4 -8.1999999999999995e-01 9.8199055346517117e+00 4.9443030694291128e+00 4.7189464565179744e+00 2 1 -1
1729 577 3 4.0999999999999998e-01 6.4020396793069931e+00 1.7819392116009316e+00 8.5207121485347930e+00 4 0 1
3611 1204 4 -8.1999999999999995e-01 8.9901604102589925e+00 6.0276291880412103e-01 4.8394603567548700e+00 1 -1 0
2162 721 4 -8.1999999999999995e-01 1.0279176186756333e+01 1.0490062039237269e+01 6.7346804837679723e+00 1 0 -4
6467 2156 4 -8.1999999999999995e-01 6.0353386952579964e+00 4.8041171465320920e+00 1.0333654771672945e+01 -2 -1 -3
4893 1631 3 4.0999999999999998e-01 1.7351266371785055e+00 7.5386666424366231e+00 5.3354426540765294e+00 1 0 -1
2225 742 4 -8.1999999999999995e-01 6.6790451827640407e+00 4.2831212459990944e+00 3.7986215077761836e+00 1 4 5
3307 1103 3 4.0999999999999998e-01 5.4582365222031601e+00 9.6191215331743116e+00 7.6588382878868382e+00 1 2 -1
4891 1631 3 4.0999999999999998e-01 3.2608156640249017e+00 7.3567995407895550e+00 4.7619441840436574e+00 1 0 -1
893 298 4 -8.1999999999999995e-01 3.6092145890318914e+00 3.2704605978274104e-01 7.4789988189296883e+00 -2 2 -2
6468 2156 3 4.0999999999999998e-01 5.2110940608669249e+00 4.2579730913507081e+00 1.0045605695607991e+01 -2 -1 -3
1673 558 4 -8.1999999999999995e-01 8.4611888642879514e+00 8.1512709389255242e+00 1.0153836057504259e+01 -1 1 4
5160 1720 3 4.0999999999999998e-01 6.6017541344324329e+00 1.3629406623624825e+00 1.0501184564614851e+01 -1 2 2
6493 2165 3 4.0999999999999998e-01 3.2277244538449898e+00 6.1779067790882598e+00 7.2243867970784581e-01 -1 -1 -1
1832 611 4 -8.1999999999999995e-01 4.7811236169188023e+00 7.1848067207264217e+00 3.6145604933028532e+00 -1 2 1
6495 2165 3 4.0999999999999998e-01 3.4865662796007055e+00 4.9755576421804308e+00 1.7574202460578208e+00 -1 -1 -1
2047 683 3 4.0999999999999998e-01 2.2147387488792920e+00 5.3096416825128774e+00 6.4582625516388381e+00 1 -2 -3
4230 1410 3 4.0999999999999998e-01 9.7689315779756161e+00 5.9876308223400958e+00 4.6119754500263630e+00 2 1 -1
6239 2080 4 -8.1999999999999995e-01 8.0438692811853596e-01 9.2323958893106148e+00 7.8761224266228336e+00 5 0 -1
1714 572 3 4.0999999999999998e-01 1.8076617107714261e+00 1.6343046554694236e+00 6.8269130930378443e+00 0 -2 1
1370 457 4 -8.1999999999999995e-01 2.8459353261384610e+00 6.9783327575518044e+00 9.0457168725265245e+00 0 4 3
6238 2080 3 4.0999999999999998e-01 3.8782414915207652e-01 9.9050606722365071e+00 7.2200819773907199e+00 5 0 -1
7212 2404 3 4.0999999999999998e-01 4.7165136080932007e-01 6.0630375652399326e+00 3.4796877453030590e+00 -5 1 1
3858 1286 3 4.0999999999999998e-01 7.0096494165186360e+00 7.2889505515571020e+00 7.1285037004982312e+00 -3 0 6
547 183 3 4.0999999999999998e-01 8.6433912916070597e+00 3.4542408591732152e+00 5.2855567748827239e+00 1 1 -1
6494 2165 4 -8.1999999999999995e-01 3.9573128495934111e+00 5.7824988988420642e+00 1.3466139897303286e+00 -1 -1 -1
4669 1557 3 4.0999999999999998e-01 5.6632753201261847e+00 5.4229225269145003e+00 1.2693043084707252e+00 -2 2 -3
2500 834 3 4.0999999999999998e-01 1.6886292367351774e+00 9.7830603037910606e+00 9.2285372331085238e+00 -6 3 -1
892 298 3 4.0999999999999998e-01 4.6131593285505446e+00 4.7372352606253987e-01 7.2857187951405784e+00 -2 2 -2
1367 456 4 -8.1999999999999995e-01 1.0328260604825170e+01 4.7928496513797536e-01 2.5388573337370007e-01 1 1 1
5518 1840 3 4.0999999999999998e-01 1.0188302787070635e+01 8.1728949667239323e+00 5.0979816764187520e+00 2 -2 4
1372 458 3 4.0999999999999998e-01 7.1063667729159992e+00 1.5571842398452418e-01 6.1554276362209626e+00 -2 1 3
7075 2359 3 4.0999999999999998e-01 3.2934663317897370e+00 1.1520191440704179e+00 1.5354998240626397e+01 1 -4 2
7321 2441 3 4.0999999999999998e-01 3.3880561499417022e-01 1.5517905215991472e+00 2.0646585362939373e+01 1 0 2
1887 629 3 4.0999999999999998e-01 9.0033963173524434e+00 6.4672389744629850e+00 1.0683760088708915e+01 1 6 0
2239 747 3 4.0999999999999998e-01 2.4798167116105914e+00 6.6736396263837916e+00 1.5385100483587266e+01 2 -2 1
2602 868 3 4.0999999999999998e-01 1.6746973136545540e+00 9.3026357972692679e+00 1.1543252626363882e+01 -2 4 1
5769 1923 3 4.0999999999999998e-01 2.1218100104773150e+00 9.1994289687745230e+00 1.6590372640039117e+01 3 -1 -3
2472 824 3 4.0999999999999998e-01 7.6699469876975046e+00 3.4348861900915972e+00 1.3364418644955540e+01 0 -1 -1
1885 629 3 4.0999999999999998e-01 1.0041328826459248e+01 5.2434710244034770e+00 1.1012638408251249e+01 1 6 0
4721 1574 4 -8.1999999999999995e-01 6.0179787419736606e+00 7.7344842603792490e+00 2.0375696589217092e+01 2 -3 1
6567 2189 3 4.0999999999999998e-01 5.5234918895560501e+00 1.0505385309797981e+01 1.7622447828692163e+01 3 4 3
3694 1232 3 4.0999999999999998e-01 2.8916542219474555e+00 6.5135172372374885e+00 1.2902401730925472e+01 2 -1 -1
5767 1923 3 4.0999999999999998e-01 3.7328795830181787e+00 8.8202752113864555e+00 1.6380510214277312e+01 3 -1 -3
2615 872 4 -8.1999999999999995e-01 4.8619375639283611e+00 5.2179891529142877e+00 1.4051777875721136e+01 -1 -1 -2
3695 1232 4 -8.1999999999999995e-01 1.9391166285754142e+00 6.7396685638474514e+00 1.3244257659440740e+01 2 -1 -1
5978 1993 4 -8.1999999999999995e-01 1.0199717509007993e+01 7.2063984791424147e+00 1.7184155485267013e+01 0 0 0
6661 2221 3 4.0999999999999998e-01 9.5130413195272592e+00 3.5611701030894651e+00 1.8193935349482373e+01 -2 1 -2
2241 747 3 4.0999999999999998e-01 4.1095476522203640e+00 6.2607976060776087e+00 1.5261433933462937e+01 2 -2 1
7076 2359 4 -8.1999999999999995e-01 4.1285799939573558e+00 1.2326132760077297e+00 1.4779287338089768e+01 1 -4 2
7077 2359 3 4.0999999999999998e-01 4.9410649042054482e+00 1.1237730766577949e+00 1.5417645416024179e+01 1 -4 2
1978 660 3 4.0999999999999998e-01 3.6313146768668951e+00 6.6499172508846094e+00 1.0618409557125879e+01 4 5 -4
4704 1568 3 4.0999999999999998e-01 2.2592723879349599e+00 6.8793066323811454e+00 1.9584048317517713e+01 1 1 0
5158 1720 3 4.0999999999999998e-01 7.4147292820166761e+00 1.9228725671389855e+00 1.1857043616388292e+01 -1 2 2
4703 1568 4 -8.1999999999999995e-01 1.8211649911257106e+00 6.0056392391797013e+00 1.9235734193121342e+01 1 1 0
5849 1950 4 -8.1999999999999995e-01 9.1006730679289074e+00 5.9123998806987670e+00 1.5135912040980832e+01 -2 5 1
2975 992 4 -8.1999999999999995e-01 6.1054955058203415e+00 8.5771430849661403e+00 1.1532885588052540e+01 -2 -4 5
30 10 3 4.0999999999999998e-01 3.2930707228903882e+00 4.1202506883992163e+00 1.3507134113803703e+01 2 2 -3
2470 824 3 4.0999999999999998e-01 8.2227001303716598e+00 4.2860454407919919e+00 1.2038907134823448e+01 0 -1 -1
2104 702 3 4.0999999999999998e-01 5.9165750356690587e+00 1.1049248175923851e+00 1.8609978778483161e+01 3 1 2
5266 1756 3 4.0999999999999998e-01 4.3728283823995806e+00 3.7508766752526332e+00 1.8573688508257231e+01 -1 -3 -1
4292 1431 4 -8.1999999999999995e-01 2.9016908552737442e-01 1.8725118155510692e+00 1.8728713127738352e+01 -1 0 -3
236 79 4 -8.1999999999999995e-01 5.2312270795282174e+00 6.6910646960695246e+00 1.7930873025883841e+01 4 -2 0
3312 1104 3 4.0999999999999998e-01 9.6897097738580555e+00 6.0509942597114899e+00 2.0234792368152107e+01 -1 -1 2
6148 2050 3 4.0999999999999998e-01 3.1853007748587410e+00 9.2539833940443561e+00 2.0129096651654095e+01 -1 -1 -3
2974 992 3 4.0999999999999998e-01 5.7511295894110610e+00 9.4389341123163017e+00 1.1107776067867762e+01 -2 -4 5
5275 1759 3 4.0999999999999998e-01 6.3906422114223131e+00 8.3180809510996863e+00 1.7463857138223428e+01 -3 -1 1
5432 1811 4 -8.1999999999999995e-01 2.6738302053806868e+00 1.9652279696383825e+00 1.1349145037543190e+01 -2 5 -2
6149 2050 4 -8.1999999999999995e-01 3.2564514267931557e+00 8.2368207393228197e+00 2.0113937676307145e+01 -1 -1 -3
3033 1011 3 4.0999999999999998e-01 9.7122868755988669e+00 8.9454444676573530e+00 1.7331174784772678e+01 5 2 -3
6503 2168 4 -8.1999999999999995e-01 2.2523430545552183e+00 2.0442582447398321e+00 1.6627044256514765e+01 4 -2 -2
5977 1993 3 4.0999999999999998e-01 1.0363370568392877e+01 6.8622819661176315e+00 1.8157191434451764e+01 0 0 0
5431 1811 3 4.0999999999999998e-01 2.4831802700591545e+00 2.6600465816379439e+00 1.2108691451040638e+01 -2 5 -2
4720 1574 3 4.0999999999999998e-01 6.7824233301423424e+00 8.3989181238653110e+00 2.0222306481586138e+01 2 -3 1
2240 747 4 -8.1999999999999995e-01 3.3768925070409321e+00 6.6967922039803573e+00 1.5885244515978481e+01 2 -2 1
2976 992 3 4.0999999999999998e-01 5.5772553318481295e+00 7.7416264801336743e+00 1.1404223331831318e+01 -2 -4 5
237 79 3 4.0999999999999998e-01 5.4285989390009162e+00 5.7362766869518218e+00 1.8244449475901455e+01 4 -2 0
6584 2195 4 -8.1999999999999995e-01 8.2105818021100045e+00 9.8817157039560897e+00 2.0247516589638291e+01 3 2 1
2616 872 3 4.0999999999999998e-01 4.9959022344721102e+00 5.6364718092798185e+00 1.3128990930237693e+01 -1 -1 -2
2105 702 4 -8.1999999999999995e-01 6.6627245070121388e+00 1.5574304515162043e+00 1.9095973239208771e+01 3 1 2
6968 2323 4 -8.1999999999999995e-01 7.7488515515268377e+00 7.9185170388406236e+00 1.3963872912067334e+01 -2 -2 2
5276 1759 4 -8.1999999999999995e-01 6.5920590965057970e+00 9.2931622653453960e+00 1.7523787414963763e+01 -3 -1 1
2043 681 3 4.0999999999999998e-01 2.2397911631475380e+00 4.6158824390831574e+00 1.9214045669104763e+01 -2 1 0
4722 1574 3 4.0999999999999998e-01 5.7158234259538476e+00 7.3306813913255269e+00 1.9504895854943193e+01 2 -3 1
2603 868 4 -8.1999999999999995e-01 1.2648739918830953e+00 9.2317409646700579e+00 1.2482791729184244e+01 -2 4 1
3032 1011 4 -8.1999999999999995e-01 9.1017859700036858e+00 9.7719997486181054e+00 1.7338232420262635e+01 5 2 -3
1484 495 4 -8.1999999999999995e-01 4.4353344500669101e+00 8.4491885920132870e-01 1.7744689429899083e+01 2 2 0
6504 2168 3 4.0999999999999998e-01 2.3350645409909698e+00 2.8373067211400738e+00 1.7321824535761532e+01 4 -2 -2
6585 2195 3 4.0999999999999998e-01 8.3175971059405107e+00 9.7155007082281539e+00 1.9240942164080746e+01 3 2 1
2792 931 4 -8.1999999999999995e-01 7.1397708077658395e-01 4.9319768827491144e+00 1.7012785430012151e+01 2 3 -2
5277 1759 3 4.0999999999999998e-01 7.6252351589132301e+00 9.4104816860295966e+00 1.7344524126524728e+01 -3 -1 1
5768 1923 4 -8.1999999999999995e-01 3.0376550625581982e+00 9.5505544580178032e+00 1.6213593430231857e+01 3 -1 -3
6967 2323 3 4.0999999999999998e-01 6.9535145130116103e+00 7.6144516514011595e+00 1.3286163075447583e+01 -2 -2 2
2041 681 3 4.0999999999999998e-01 1.7460480660885085e+00 3.0529491149230994e+00 1.9259496654435100e+01 -2 1 0
5848 1950 3 4.0999999999999998e-01 8.6978156931323198e+00 6.6481517556733136e+00 1.4570449374373874e+01 -2 5 1
6662 2221 4 -8.1999999999999995e-01 9.1022143274946394e+00 2.9874101562716033e+00 1.7477854973891471e+01 -2 1 -2
1980 660 3 4.0999999999999998e-01 5.1091188200023527e+00 6.0124444794694076e+00 1.0901379281095435e+01 4 5 -4
28 10 3 4.0999999999999998e-01 2.9965694486105083e+00 2.6487426945469132e+00 1.4048557090423419e+01 2 2 -3
6969 2323 3 4.0999999999999998e-01 7.6220997158942696e+00 8.9482391288963115e+00 1.4048366127098669e+01 -2 -2 2
5279 1760 4 -8.1999999999999995e-01 4.6559673351070288e+00 2.2322991399169004e-01 1.2239945725848482e+01 0 -2 1
7284 2428 3 4.0999999999999998e-01 3.7010645973371532e+00 4.2195062375962280e+00 2.0519161946703434e+01 2 2 -5
29 10 4 -8.1999999999999995e-01 2.5552405500576629e+00 3.4119798328317539e+00 1.3489611900137181e+01 2 2 -3
5278 1760 3 4.0999999999999998e-01 5.6028303476588199e+00 4.0559968021894516e-01 1.1818526858989179e+01 0 -2 1
4345 1449 3 4.0999999999999998e-01 8.0703509328223184e+00 2.2794118474640044e+00 2.0182191178664247e+01 0 -4 0
2614 872 3 4.0999999999999998e-01 5.6425706269230158e+00 4.6024655003109336e+00 1.4448294105906866e+01 -1 -1 -2
6150 2050 3 4.0999999999999998e-01 4.1835553049065100e+00 7.9543792073063866e+00 2.0452916787506794e+01 -1 -1 -3
5159 1720 4 -8.1999999999999995e-01 7.1319548831025354e+00 1.0770767368225982e+00 1.1347905523615847e+01 -1 2 2
5268 1756 3 4.0999999999999998e-01 6.0141476591755394e+00 3.2428748495553572e+00 1.8843564234166713e+01 -1 -3 -1
5397 1799 3 4.0999999999999998e-01 4.8044478474127783e-01 5.3899037717604763e+00 2.0205390079759763e+01 -1 -1 1
5267 1756 4 -8.1999999999999995e-01 5.4019945161708813e+00 4.0085644830928757e+00 1.8636314222881190e+01 -1 -3 -1
235 79 3 4.0999999999999998e-01 4.3989436593503966e+00 6.7507185255401012e+00 1.7293097528570573e+01 4 -2 0
4702 1568 3 4.0999999999999998e-01 1.6128274903546083e+00 5.8670713294159915e+00 1.8235530885092288e+01 1 1 0
5850 1950 3 4.0999999999999998e-01 9.2429537486921696e+00 6.4357112245035228e+00 1.6015181369295817e+01 -2 5 1
3031 1011 3 4.0999999999999998e-01 9.4328472277471676e+00 1.0553356830889971e+01 1.6749278566062173e+01 5 2 -3
1886 629 4 -8.1999999999999995e-01 9.0889031894886276e+00 5.5628321286302542e+00 1.1116698753692546e+01 1 6 0
3696 1232 3 4.0999999999999998e-01 1.6727507479740218e+00 7.7010900585433291e+00 1.2941990115248574e+01 2 -1 -1
6466 2156 3 4.0999999999999998e-01 6.5838598551360041e+00 4.4003481237210140e+00 1.1059865108388474e+01 -2 -1 -3
4191 1397 3 4.0999999999999998e-01 8.8162388163232541e-01 3.4458956755233245e+00 1.3744390783805812e+01 2 -4 -2
1288 430 3 4.0999999999999998e-01 7.1020767967253313e+00 3.6990749705692880e+00 1.6117581257237088e+01 3 0 0
1289 430 4 -8.1999999999999995e-01 7.1988087193581709e+00 4.0478695354097880e+00 1.5151503417013089e+01 3 0 0
2793 931 3 4.0999999999999998e-01 3.9514540851253793e-01 5.6771970595256294e+00 1.6349475618601780e+01 2 3 -2
5280 1760 3 4.0999999999999998e-01 4.4641978655438930e+00 3.1141013168665183e-01 1.3260903670122076e+01 0 -2 1
1979 660 4 -8.1999999999999995e-01 4.3072245551310750e+00 6.4388004064204569e+00 1.1382168147776548e+01 4 5 -4
2106 702 3 4.0999999999999998e-01 7.5024398304821007e+00 1.4891320995553852e+00 1.8512200273206343e+01 3 1 2
1485 495 3 4.0999999999999998e-01 3.7799994175924980e+00 1.3564730466929500e+00 1.7210013263078483e+01 2 2 0
6663 2221 3 4.0999999999999998e-01 9.9053956855937138e+00 2.9368001372212169e+00 1.6824247541978121e+01 -2 1 -2
1290 430 3 4.0999999999999998e-01 8.0013654199492326e+00 4.7114837490710455e+00 1.5289198079505287e+01 3 0 0
1674 558 3 4.0999999999999998e-01 7.5985401398333678e+00 8.2904030185424755e+00 1.0684982090775751e+01 -1 1 4
6502 2168 3 4.0999999999999998e-01 1.4597744434256139e+00 1.5067469129910414e+00 1.6920323942436521e+01 4 -2 -2
4346 1449 4 -8.1999999999999995e-01 8.7611167844595474e+00 2.6968345310134318e+00 2.0811847464816200e+01 0 -4 0
2471 824 4 -8.1999999999999995e-01 7.7536244559454666e+00 3.4585799573555671e+00 1.2354958769745718e+01 0 -1 -1
2042 681 4 -8.1999999999999995e-01 2.5898541428841040e+00 3.6313412948672519e+00 1.9111813721939892e+01 -2 1 0
2604 868 3 4.0999999999999998e-01 1.6761255824250836e+00 9.9772385809682671e+00 1.3066249901020445e+01 -2 4 1
5433 1811 3 4.0999999999999998e-01 3.4998216923039167e+00 1.4195712250490662e+00 1.1446709914469640e+01 -2 5 -2
5016 1672 3 4.0999999999999998e-01 2.6398374163684566e+00 1.0472524098347465e+01 1.4949703381564495e+01 1 -3 2
1822 608 3 4.0999999999999998e-01 5.6524395766784936e+00 1.9353941440255760e+00 2.0884880731735851e+01 4 -1 4
5770 1924 3 4.0999999999999998e-01 6.3782287297990878e+00 5.2184367368198279e+00 2.4657577954533636e+01 4 -4 -5
6853 2285 3 4.0999999999999998e-01 5.4277902686872226e-01 5.0836704255963578e+00 2.6013922618698107e+01 6 -2 1
1717 573 3 4.0999999999999998e-01 9.2086425049142928e+00 5.0074974223569058e+00 2.4164281802437575e+01 1 0 2
6549 2183 3 4.0999999999999998e-01 1.3367998051874002e+00 9.4751099557615415e-01 2.6991463533375612e+01 3 -1 0
6931 2311 3 4.0999999999999998e-01 3.0656687296293144e+00 9.2710779592474033e+00 2.5186580494225577e+01 1 1 -1
4549 1517 3 4.0999999999999998e-01 5.2795398473965198e+00 7.3727919619290665e+00 2.3592019418423252e+01 3 -3 3
4347 1449 3 4.0999999999999998e-01 8.0943160537949641e+00 3.3741458828053843e+00 2.1123488319946681e+01 0 -4 0
5771 1924 4 -8.1999999999999995e-01 7.4232972487721849e+00 5.3585033036239871e+00 2.4409224669419157e+01 4 -4 -5
3212 1071 4 -8.1999999999999995e-01 5.9428347222473610e+00 5.3795083683560856e+00 2.7922767472736084e+01 -4 2 2
3087 1029 3 4.0999999999999998e-01 8.6961100482153491e+00 9.3440844191701569e+00 2.1604344423164260e+01 1 -2 0
2489 830 4 -8.1999999999999995e-01 1.1778784158081768e+00 8.3094943859665626e+00 2.8736502931708355e+01 -2 -3 3
6548 2183 4 -8.1999999999999995e-01 9.1111244465090735e-01 1.2685848417415568e+00 2.6106172887518284e+01 3 -1 0
654 218 3 4.0999999999999998e-01 1.7540364525655370e+00 1.0122346076150004e+01 2.9467352656330721e+01 -2 -2 -3
5305 1769 3 4.0999999999999998e-01 4.0353652626808145e+00 7.6057475698426309e+00 2.6445681006642623e+01 2 -2 -1
6826 2276 3 4.0999999999999998e-01 9.2370053476732963e+00 7.2480363052408361e+00 2.7821247475754323e+01 -4 -3 2
6394 2132 3 4.0999999999999998e-01 6.5638973151194113e+00 9.2497728908612515e+00 2.4002296000239941e+01 -1 -2 -2
3987 1329 3 4.0999999999999998e-01 7.9661692422332715e+00 4.4109324611167047e+00 2.5997668492264712e+01 3 1 -2
5306 1769 4 -8.1999999999999995e-01 4.7073827854854819e+00 7.7288646428417955e+00 2.7208006875388790e+01 2 -2 -1
4472 1491 4 -8.1999999999999995e-01 4.2998912983197028e+00 3.8028587304098926e+00 2.9825056110068193e+01 1 0 -2
2567 856 4 -8.1999999999999995e-01 4.7318429811769791e+00 5.3674351144285133e+00 2.4599501476978247e+01 -2 -1 -2
1987 663 3 4.0999999999999998e-01 7.1499556767771990e+00 1.0010556926523252e+01 2.6952241796641687e+01 1 0 1
2842 948 3 4.0999999999999998e-01 2.8116734039622926e-01 7.1120733690857429e+00 2.5711293775926052e+01 0 0 -1
968 323 4 -8.1999999999999995e-01 5.5614652264253781e+00 1.7136146148697105e+00 2.6233229117199215e+01 -1 -1 2
4902 1634 3 4.0999999999999998e-01 2.0204722605075141e+00 6.6987395535134056e+00 2.2994170613231596e+01 1 -1 0
5772 1924 3 4.0999999999999998e-01 7.5579220463026209e+00 5.5478020838505993e+00 2.3424993310652752e+01 4 -4 -5
4829 1610 4 -8.1999999999999995e-01 1.3974151136902735e+00 3.7552860215303929e+00 2.8686656986462733e+01 -1 3 -1
4830 1610 3 4.0999999999999998e-01 9.0374757815480766e-01 3.3470140883140660e+00 2.9484730159097886e+01 -1 3 -1
5101 1701 3 4.0999999999999998e-01 7.1209527031639448e+00 6.3939120526741418e+00 2.7374989557024058e+01 2 3 -1
2661 887 3 4.0999999999999998e-01 7.5456778128139277e+00 7.0711382450131879e+00 2.1420822270421517e+01 1 -2 -3
588 196 3 4.0999999999999998e-01 4.7719474159385061e-01 9.7569780405917061e+00 2.5746135438692455e+01 0 3 0
3211 1071 3 4.0999999999999998e-01 5.4097515366548237e+00 6.1794587665440996e+00 2.7696559362974192e+01 -4 2 2
6854 2285 4 -8.1999999999999995e-01 1.3735904827113050e+00 5.6469048727985731e+00 2.6070959433427547e+01 6 -2 1
4849 1617 3 4.0999999999999998e-01 1.0158750030656778e+01 8.4826316816872964e+00 2.3236741304677370e+01 3 3 0
4730 1577 4 -8.1999999999999995e-01 7.8993821899864409e+00 2.1029231687068148e+00 2.8992641398038838e+01 -1 1 -1
1015 339 3 4.0999999999999998e-01 8.5118318557907919e+00 1.7164880562863307e+00 2.2359313391398299e+01 2 1 2
2659 887 3 4.0999999999999998e-01 8.8446504213161177e+00 7.1998369264088229e+00 2.2311545739620460e+01 1 -2 -3
4729 1577 3 4.0999999999999998e-01 8.1910217881791603e+00 2.7557657490521508e+00 2.9745468892032573e+01 -1 1 -1
4900 1634 3 4.0999999999999998e-01 1.5227768748758925e+00 5.2088959984621033e+00 2.2615062847477812e+01 1 -1 0
587 196 4 -8.1999999999999995e-01 8.4190447279635006e-01 1.0140221203687414e+01 2.6636210750189790e+01 0 3 0
967 323 3 4.0999999999999998e-01 4.7426220303915896e+00 2.3856578308090590e+00 2.6131829600072667e+01 -1 -1 2
4828 1610 3 4.0999999999999998e-01 9.1458077730935838e-01 3.8084359922038100e+00 2.7793488019077252e+01 -1 3 -1
2490 830 3 4.0999999999999998e-01 2.1683602687816008e+00 8.0313617247738911e+00 2.8872348971651842e+01 -2 -3 3
5307 1769 3 4.0999999999999998e-01 4.7871169786373455e+00 8.7809971049651114e+00 2.7313794981745609e+01 2 -2 -1
4213 1405 3 4.0999999999999998e-01 4.7279861786288215e+00 1.6191757917074285e+00 2.8309065595618947e+01 3 -2 1
6547 2183 3 4.0999999999999998e-01 1.1987252287013577e+00 6.8146354871278092e-01 2.5336099288994145e+01 3 -1 0
593 198 4 -8.1999999999999995e-01 9.3045619553418195e+00 1.3561466500706068e+00 2.5747637635021629e+01 -2 0 -1
5291 1764 4 -8.1999999999999995e-01 3.2226134092246433e-01 2.4384359720774142e+00 3.0828115189557391e+01 4 -3 0
969 323 3 4.0999999999999998e-01 6.4910797658775863e+00 2.2126886249014146e+00 2.6113685547802824e+01 -1 -1 2
4901 1634 4 -8.1999999999999995e-01 2.2680801659481689e+00 5.7039109478431076e+00 2.3022215759726514e+01 1 -1 0
5103 1701 3 4.0999999999999998e-01 7.5953333878680924e+00 6.7177399858695868e+00 2.5806060366664884e+01 2 3 -1
2966 989 4 -8.1999999999999995e-01 9.2856156546816386e+00 4.1423591520314140e+00 3.0968604142238750e+01 -2 -2 -2
1016 339 4 -8.1999999999999995e-01 8.6961638099106580e+00 1.0150286513114655e+00 2.3087159949441670e+01 2 1 2
245 82 4 -8.1999999999999995e-01 5.2385214226615338e+00 1.0455861383442167e+01 2.7140655759095893e+01 2 2 -2
6828 2276 3 4.0999999999999998e-01 1.0535302270147998e+01 8.1942303171479391e+00 2.7585088559277143e+01 -4 -3 2
4305 1435 3 4.0999999999999998e-01 8.2515618856164927e+00 2.4071875168613668e-01 2.9184564053211798e+01 0 3 2
2568 856 3 4.0999999999999998e-01 4.4058560115380851e+00 4.6935025126867203e+00 2.5324732276209499e+01 -2 -1 -2
4551 1517 3 4.0999999999999998e-01 5.9631593002663212e+00 7.9416678163857206e+00 2.2115399506660530e+01 3 -3 3
3986 1329 4 -8.1999999999999995e-01 8.4413761745764901e+00 3.7411345013857966e+00 2.6666699522902768e+01 3 1 -2
4672 1558 3 4.0999999999999998e-01 1.0371231251260047e+00 8.8164326227800860e+00 2.2178010193550605e+01 -2 6 3
7195 2399 3 4.0999999999999998e-01 3.2582122428316609e+00 5.7584524882088051e+00 2.9928359110486767e+01 1 -1 2