LAMMPS data file via write_data, version 5 Jun 2019, timestep = 12000000

7349 atoms
5 atom types
4899 bonds
2 bond types
2451 angles
2 angle types
1 impropers
1 improper types

1.5519297081455363e-01 4.1845807029189409e+01 xlo xhi
1.5469297081455124e-01 4.1845307029189406e+01 ylo yhi
1.5469297081455124e-01 4.1845307029189406e+01 zlo zhi

#Masses
#
#1 12.01
#2 40.08
#3 1.01
#4 16
#5 16
#
#Bond Coeffs # harmonic
#
#1 20.4246 1.3042
#2 22.965 1.012

Atoms # full

4967 1656 4 -8.1999999999999995e-01 3.1297000725752402e+00 7.3838467385707824e+00 2.2012366700888935e+00 0 -4 0
5180 1727 4 -8.1999999999999995e-01 3.4023577510894998e+00 7.2362003286548306e+00 1.0216717586912125e+01 1 2 -1
5746 1916 3 4.0999999999999998e-01 1.7500578860321185e+00 8.0218330061531518e+00 7.8181359122917851e+00 -1 -1 5
7324 2442 3 4.0999999999999998e-01 9.3992739813827342e+00 5.7076299604549163e+00 3.3784114202179638e-01 2 -1 0
6472 2158 3 4.0999999999999998e-01 4.9430564503969059e+00 3.6393922725686434e-01 3.5148230345255089e+00 -4 0 -1
1030 344 3 4.0999999999999998e-01 9.7672201150405851e+00 5.3513339613506936e+00 2.4819918784917108e+00 3 1 0
2238 746 3 4.0999999999999998e-01 1.9690015819064888e+00 7.1144033517302541e-01 5.4521967073054531e+00 2 0 -1
3730 1244 3 4.0999999999999998e-01 1.6756955647856351e+00 6.6292102451214541e-01 2.2671481936867202e+00 -3 4 -2
4882 1628 3 4.0999999999999998e-01 8.1321838291899375e+00 8.9966222954439452e+00 1.0527125880249733e+01 2 -3 -4
6086 2029 4 -8.1999999999999995e-01 1.9975253037074538e+00 6.1230943720139877e+00 4.7022606282171910e+00 -2 1 0
2236 746 3 4.0999999999999998e-01 3.7174821671740546e+00 6.6947630657785140e-01 5.5159726822919373e+00 2 0 -1
5488 1830 3 4.0999999999999998e-01 8.8202707791242929e+00 5.4333145478236222e+00 4.7424042981838239e+00 -1 3 1
6087 2029 3 4.0999999999999998e-01 1.0525136979119898e+00 6.1244906448188958e+00 4.3676471767568597e+00 -2 1 0
7139 2380 4 -8.1999999999999995e-01 2.3043277669517062e-01 3.7066911996191738e+00 4.6603513868695954e+00 3 1 0
2590 864 3 4.0999999999999998e-01 3.7990702467246701e-01 9.7216820693605275e+00 3.5598347974354954e+00 0 3 -2
4775 1592 4 -8.1999999999999995e-01 5.3532950701293789e+00 7.7126672486769792e+00 3.9152414503208512e+00 -1 -2 1
2591 864 4 -8.1999999999999995e-01 4.9425396387611853e-01 9.1484052911214278e+00 4.3960991637367748e+00 0 3 -2
1050 350 3 4.0999999999999998e-01 6.9061109165901495e+00 4.6881500025454761e+00 5.0280852141749373e+00 2 1 1
3718 1240 3 4.0999999999999998e-01 4.7137515767095683e+00 1.0190885451603862e+01 3.8510049569688802e+00 1 1 0
4920 1640 3 4.0999999999999998e-01 4.1275466825009843e+00 1.0366367914972649e+01 1.5518930040442238e+00 -1 1 0
1096 366 3 4.0999999999999998e-01 6.9333563355166739e+00 2.4636173918664234e-01 6.0513891276963925e+00 -4 -6 -2
4918 1640 3 4.0999999999999998e-01 4.9745300645424946e+00 9.0132242455317755e+00 1.4669180287960475e+00 -1 1 0
6085 2029 3 4.0999999999999998e-01 2.0534038810773829e+00 6.6799449684742473e+00 5.5702111251768942e+00 -2 1 0
3002 1001 4 -8.1999999999999995e-01 5.3265484017210847e+00 8.7788765080233997e+00 9.0278193251780614e+00 1 2 -1
1207 403 3 4.0999999999999998e-01 8.4169177558905499e+00 8.8398122534566106e+00 7.9160471766382789e+00 0 -1 0
4919 1640 4 -8.1999999999999995e-01 5.0106502245479705e+00 1.0037108097380523e+01 1.3913782948881108e+00 -1 1 0
5490 1830 3 4.0999999999999998e-01 9.3380619279722552e+00 3.8378747676318925e+00 5.0527271516049783e+00 -1 3 1
3001 1001 3 4.0999999999999998e-01 5.1009228899019865e+00 9.4738172286934024e+00 8.3184614796185343e+00 1 2 -1
2510 837 4 -8.1999999999999995e-01 2.5061563990044142e+00 5.3568727389499555e+00 5.1799018342105285e-01 -1 1 1
297 99 3 4.0999999999999998e-01 1.0108594809643710e+01 7.1466109722836171e+00 4.1660893800823180e+00 0 -1 -1
295 99 3 4.0999999999999998e-01 8.7775508387192271e+00 7.1547103093490731e+00 3.1117927086607660e+00 0 -1 -1
1328 443 4 -8.1999999999999995e-01 2.0856692458598052e+00 1.2183200285311466e+00 8.3183849015099405e+00 -3 -3 -4
6849 2283 3 4.0999999999999998e-01 5.5874582238155623e+00 5.7627636574176266e+00 2.3086734814437020e+00 -2 4 1
296 99 4 -8.1999999999999995e-01 9.3189338457042847e+00 6.5492287976429786e+00 3.7667265123113305e+00 0 -1 -1
3732 1244 3 4.0999999999999998e-01 2.2250814759370403e+00 4.3835697341463065e-01 6.9147854611955450e-01 -3 4 -2
1032 344 3 4.0999999999999998e-01 1.0342156197225140e+01 3.9932899086719873e+00 1.8444117915124927e+00 3 1 0
1557 519 3 4.0999999999999998e-01 3.1654501124294652e+00 4.5160251098077122e+00 5.0630657032286788e+00 -3 0 0
154 52 3 4.0999999999999998e-01 8.4564304354929316e+00 4.6888400790125422e+00 8.4401593708889866e+00 3 1 2
6188 2063 4 -8.1999999999999995e-01 8.9224758796721400e+00 1.0441571029706107e+00 2.9916420454364965e+00 0 2 0
7140 2380 3 4.0999999999999998e-01 9.8143822370248224e-01 4.3756971291501108e+00 4.4948378477149982e+00 3 1 0
2237 746 4 -8.1999999999999995e-01 2.8536316991182145e+00 1.2131043696083330e+00 5.7808173941210823e+00 2 0 -1
4774 1592 3 4.0999999999999998e-01 4.4804755058105439e+00 7.5557432989155204e+00 3.4417756144050933e+00 -1 -2 1
2907 969 3 4.0999999999999998e-01 6.2593092784312514e+00 2.3277786503332267e+00 7.0151551521168187e+00 2 -1 1
5128 1710 3 4.0999999999999998e-01 6.8197845382070534e+00 5.2543598093480837e+00 1.0062997616939208e+01 0 0 -2
4776 1592 3 4.0999999999999998e-01 5.6523343779188453e+00 6.8725142291851693e+00 4.4350872304030986e+00 -1 -2 1
3181 1061 3 4.0999999999999998e-01 2.0143619014901587e-01 3.0371233962987896e+00 6.2010732272865594e+00 -2 0 -1
1556 519 4 -8.1999999999999995e-01 3.8049109226380335e+00 3.8143178823924369e+00 5.4742934557122966e+00 -3 0 0
1547 516 4 -8.1999999999999995e-01 5.2500724293906913e+00 6.0214225171735825e+00 7.8295366193171585e+00 2 2 -1
6189 2063 3 4.0999999999999998e-01 9.7654223785830521e+00 6.8649066186398222e-01 2.5385134467863217e+00 0 2 0
5179 1727 3 4.0999999999999998e-01 4.2255385459574972e+00 7.7100730299314764e+00 9.8483974158805907e+00 1 2 -1
4883 1628 4 -8.1999999999999995e-01 8.1033107767492751e+00 9.4290029143892706e+00 9.5929297339266490e+00 2 -3 -4
6847 2283 3 4.0999999999999998e-01 6.1108990153118450e+00 6.1448446921192978e+00 7.1765580316239674e-01 -2 4 1
5748 1916 3 4.0999999999999998e-01 2.9405988855396692e+00 8.6132850557598157e+00 6.7149644415371217e+00 -1 -1 5
1097 366 4 -8.1999999999999995e-01 6.3443045571612888e+00 1.0134935191373737e+00 5.6316222496173252e+00 -4 -6 -2
155 52 4 -8.1999999999999995e-01 7.8090411886038620e+00 4.0998806500538416e+00 8.9709194039727578e+00 3 1 2
4966 1656 3 4.0999999999999998e-01 2.6547098521634247e+00 7.1112469342931250e+00 3.0749419949881460e+00 0 -4 0
1098 366 3 4.0999999999999998e-01 6.2190881482285958e+00 7.6961378535067049e-01 4.6112785444140103e+00 -4 -6 -2
1327 443 3 4.0999999999999998e-01 1.1985553068791135e+00 1.6808061191156447e+00 7.9266541531316195e+00 -3 -3 -4
1208 403 4 -8.1999999999999995e-01 8.6839041836603528e+00 8.5827673680851859e+00 6.9889556075279078e+00 0 -1 0
6699 2233 3 4.0999999999999998e-01 9.2358579897857798e+00 8.1602898969067841e+00 9.3037916421911360e-01 1 -1 -3
4138 1380 3 4.0999999999999998e-01 8.7447500436605075e-01 9.3965950003797811e+00 9.2282462843755884e+00 4 -1 0
1546 516 3 4.0999999999999998e-01 5.1087327966179963e+00 7.0147782469852649e+00 7.9992258687122373e+00 2 2 -1
1329 443 3 4.0999999999999998e-01 2.7878620077085885e+00 1.4234922295464572e+00 7.6005829118978978e+00 -3 -3 -4
5181 1727 3 4.0999999999999998e-01 2.5968020820482045e+00 7.6790423740716598e+00 9.7692214195085381e+00 1 2 -1
814 272 3 4.0999999999999998e-01 7.4803467318371988e+00 8.8121418521534012e-01 2.7056905606974095e+00 2 -1 1
4959 1653 3 4.0999999999999998e-01 6.5648187351671554e+00 8.6297853707258554e+00 4.3087833249079557e+00 -1 -4 -3
2015 672 4 -8.1999999999999995e-01 1.0272702279556070e+01 2.7154214706562656e+00 4.5616924083530632e+00 0 4 0
6187 2063 3 4.0999999999999998e-01 9.2382768464317611e+00 1.9481144095953395e+00 3.4534356590606210e+00 0 2 0
322 108 3 4.0999999999999998e-01 3.2097513979547454e-01 4.0366444547742164e+00 1.0189910578413231e+01 -1 -2 3
6697 2233 3 4.0999999999999998e-01 8.8681285729743617e+00 9.5043317432738981e+00 1.7071069870305402e+00 1 -1 -3
5079 1693 3 4.0999999999999998e-01 9.2661650219284706e+00 6.7713296468349862e+00 7.4236230196034150e+00 4 0 0
2592 864 3 4.0999999999999998e-01 3.7540742845429464e-01 8.1744415378475672e+00 4.1267022193680605e+00 0 3 -2
5077 1693 3 4.0999999999999998e-01 9.3027354114816827e+00 5.2998074185929376e+00 6.8184374981526030e+00 4 0 0
1048 350 3 4.0999999999999998e-01 5.1892607680057319e+00 4.5722792342597032e+00 5.0644071462307076e+00 2 1 1
4884 1628 3 4.0999999999999998e-01 8.4421118463320290e+00 1.0404501743369188e+01 9.7762367901903868e+00 2 -3 -4
4958 1653 4 -8.1999999999999995e-01 7.3560091435687918e+00 9.2341743605594591e+00 4.4663031458932059e+00 -1 -4 -3
3921 1307 3 4.0999999999999998e-01 2.4611001628910230e+00 1.8306705945488275e+00 9.7666420936935889e+00 -4 1 1
1548 516 3 4.0999999999999998e-01 5.5068408069339991e+00 5.7093265146809982e+00 6.8863275575984204e+00 2 2 -1
7012 2338 3 4.0999999999999998e-01 6.7635848148410389e+00 3.9821960775516105e+00 4.2018534265994495e-01 1 0 -2
4957 1653 3 4.0999999999999998e-01 8.1461850653270531e+00 8.7972876280404400e+00 4.0392230386394150e+00 -1 -4 -3
3003 1001 3 4.0999999999999998e-01 6.3098472898229954e+00 8.9610092845748976e+00 9.2267142736494225e+00 1 2 -1
156 52 3 4.0999999999999998e-01 7.0212914808504507e+00 3.8865457080157388e+00 8.3367930338797738e+00 3 1 2
6698 2233 4 -8.1999999999999995e-01 9.1823817048836709e+00 8.5597936141055104e+00 1.9057280655088806e+00 1 -1 -3
1555 519 3 4.0999999999999998e-01 3.3590804940139423e+00 2.8634669227564760e+00 5.5864844527718116e+00 -3 0 0
5489 1830 4 -8.1999999999999995e-01 8.8287604429476172e+00 4.6118138756277380e+00 5.4320759455190926e+00 -1 3 1
5078 1693 4 -8.1999999999999995e-01 9.6879790273414077e+00 5.8827318681157115e+00 7.5852546676987318e+00 4 0 0
4968 1656 3 4.0999999999999998e-01 2.8821754688548076e+00 6.6899992438034115e+00 1.4533819058158723e+00 0 -4 0
2905 969 3 4.0999999999999998e-01 5.0186955982029442e+00 3.4520636523056036e+00 6.9381204531454905e+00 2 -1 1
1031 344 4 -8.1999999999999995e-01 9.8671822375789535e+00 4.8251136284229723e+00 1.6090361543060341e+00 3 1 0
2906 969 4 -8.1999999999999995e-01 5.8574516602257587e+00 3.1588258023181002e+00 7.3940593567284925e+00 2 -1 1
1949 650 4 -8.1999999999999995e-01 5.0635356203881727e+00 1.0525627525995089e+01 6.8257724490844218e+00 -1 0 2
1049 350 4 -8.1999999999999995e-01 6.0169966136954258e+00 5.2166031870206631e+00 4.9412936956451450e+00 2 1 1
1209 403 3 4.0999999999999998e-01 8.0515740415624695e+00 9.0952696730176363e+00 6.3467927044064245e+00 0 -1 0
4139 1380 4 -8.1999999999999995e-01 1.1787429137768621e+00 8.4384557609928024e+00 9.2347430314356149e+00 4 -1 0
5747 1916 4 -8.1999999999999995e-01 2.2891750957005894e+00 7.8776239867007787e+00 6.9286569933667481e+00 -1 -1 5
6848 2283 4 -8.1999999999999995e-01 5.9040760558841043e+00 5.4277452051210107e+00 1.4007114857018110e+00 -2 4 1
2255 752 4 -8.1999999999999995e-01 6.4326820695250388e+00 6.7438659322230587e-01 9.8153249694616651e+00 -2 0 -2
816 272 3 4.0999999999999998e-01 6.1415615895688269e+00 7.7058177244848614e-01 1.6819441359026772e+00 2 -1 1
2254 752 3 4.0999999999999998e-01 6.4915739214791062e+00 4.3735595513013126e-01 8.8294168214343536e+00 -2 0 -2
5757 1919 3 4.0999999999999998e-01 1.0213039519110248e+01 8.2777254535422493e+00 5.9489837707301652e+00 1 1 -1
815 272 4 -8.1999999999999995e-01 6.4267289978213364e+00 7.7693711791663178e-01 2.6788854275546301e+00 2 -1 1
3283 1095 3 4.0999999999999998e-01 8.5014619284056749e+00 2.6625658695137657e+00 1.0266520646973152e+01 -4 2 -1
3825 1275 3 4.0999999999999998e-01 2.2256822124661077e-01 4.4379755052272990e-01 3.8508922969891919e+00 3 4 -1
2256 752 3 4.0999999999999998e-01 6.1983766663156423e+00 1.6512106650288021e+00 1.0032782114440501e+01 -2 0 -2
2014 672 3 4.0999999999999998e-01 1.0511105929944524e+01 1.9007888366023653e+00 5.2110506661755354e+00 0 4 0
4140 1380 3 4.0999999999999998e-01 2.5603952845628719e-01 7.9364613316988919e+00 9.2979456293644329e+00 4 -1 0
2511 837 3 4.0999999999999998e-01 1.6876924287660104e+00 4.7479604379302671e+00 4.2613998414965831e-01 -1 1 1
3731 1244 4 -8.1999999999999995e-01 2.3834664808183410e+00 2.1219663339720893e-01 1.6800544109008944e+00 -3 4 -2
7306 2436 3 4.0999999999999998e-01 7.7131796870498155e+00 1.0550368824832326e+01 5.5332025224388515e+00 0 -2 -2
3038 1013 4 -8.1999999999999995e-01 4.9027590072397748e-01 9.4688264900780550e-01 1.2122038296620650e+01 2 4 0
1634 545 4 -8.1999999999999995e-01 4.4656224567878677e+00 2.3834595084782064e+00 1.2848296939118699e+01 4 4 -1
1847 616 4 -8.1999999999999995e-01 7.6607513008973251e+00 5.3345998046328162e+00 1.4534495815445931e+01 3 1 -2
1846 616 3 4.0999999999999998e-01 7.7745568282426065e+00 6.0496751921420575e+00 1.5201065840909475e+01 3 1 -2
1056 352 3 4.0999999999999998e-01 5.0916502159016330e+00 3.3512491931769728e+00 1.5513219485662813e+01 0 -2 -2
4218 1406 3 4.0999999999999998e-01 8.2619253485299851e+00 8.1721132535833068e+00 1.6080831059650659e+01 3 1 5
873 291 3 4.0999999999999998e-01 1.1335628103739692e+00 4.8770098344790878e+00 1.2106206632452061e+01 2 2 1
2287 763 3 4.0999999999999998e-01 1.0241270925036126e+01 7.7894487342233107e+00 1.8110063915364137e+01 2 -2 -4
3905 1302 4 -8.1999999999999995e-01 1.4227929932759820e+00 8.1675812894039979e+00 2.0005247046086094e+01 1 2 4
3877 1293 3 4.0999999999999998e-01 5.6750216706432948e+00 6.2338974556292230e+00 1.2446368305149214e+01 -1 3 0
4721 1574 4 -8.1999999999999995e-01 2.1323946038172106e+00 2.1385306276548177e+00 1.5662988576560519e+01 3 0 1
55 19 3 4.0999999999999998e-01 3.9744439237178235e+00 8.7070428068272925e+00 1.5135187661386507e+01 1 -1 0
3920 1307 4 -8.1999999999999995e-01 2.8424104757186126e+00 2.3495066626412329e+00 1.0603798102040860e+01 -4 1 1
2567 856 4 -8.1999999999999995e-01 2.5689442230803100e-01 5.4942580998910682e+00 2.0188049112740700e+01 -2 -1 -2
4216 1406 3 4.0999999999999998e-01 7.7445984243119588e+00 7.4205069284064180e+00 1.7551786501065802e+01 3 1 5
4720 1574 3 4.0999999999999998e-01 1.0966750125941696e+00 2.2253908925708346e+00 1.5686522034761548e+01 3 0 1
595 199 3 4.0999999999999998e-01 6.0181780494026311e+00 2.5690303051322374e+00 1.3172827737747422e+01 0 0 0
3916 1306 3 4.0999999999999998e-01 1.0147690023256349e+01 1.9956828453527500e+00 1.2474620256518845e+01 3 0 0
3917 1306 4 -8.1999999999999995e-01 1.0274646713776150e+01 2.0369616537097839e+00 1.3497304451604675e+01 3 0 0
652 218 3 4.0999999999999998e-01 8.2336845579781959e-01 4.0493646779858379e+00 2.0865654279705467e+01 -1 -2 -2
3285 1095 3 4.0999999999999998e-01 7.9403697753744247e+00 2.4060405011906485e+00 1.1903747077130125e+01 -4 2 -1
2005 669 3 4.0999999999999998e-01 4.3287295544364222e+00 5.4086084680446795e+00 1.4108003728578254e+01 0 -2 0
5324 1775 4 -8.1999999999999995e-01 1.7436939445250317e+00 8.3862048479707063e+00 1.5378060328570911e+01 -1 -1 -1
3919 1307 3 4.0999999999999998e-01 2.5959122543457576e+00 3.3265588398786852e+00 1.0646869512381787e+01 -4 1 1
2231 744 4 -8.1999999999999995e-01 4.9537511154046285e+00 6.2881914579663691e+00 1.6936001336789143e+01 2 0 1
5254 1752 3 4.0999999999999998e-01 7.5004781725192808e+00 7.9776359616026076e+00 1.9450450731740940e+01 2 2 0
1448 483 4 -8.1999999999999995e-01 1.0075124359975028e+01 4.4428424116147038e+00 1.6633784594710047e+01 1 1 -2
2067 689 3 4.0999999999999998e-01 3.1939218710148234e+00 2.6660139804306544e+00 1.8081741670597474e+01 5 -1 2
2863 955 3 4.0999999999999998e-01 5.2545287315489704e+00 5.3253272563290119e+00 1.8327982937682116e+01 0 1 -1
2065 689 3 4.0999999999999998e-01 3.6426571688130291e+00 1.1045616978572645e+00 1.7975543838574087e+01 5 -1 2
7204 2402 3 4.0999999999999998e-01 3.3786863288936817e+00 1.0108523170088707e+01 1.8203502252436589e+01 -3 3 -2
3906 1302 3 4.0999999999999998e-01 2.2488437621781916e+00 8.6126417197401111e+00 1.9524781281087428e+01 1 2 4
2232 744 3 4.0999999999999998e-01 4.5824998263497605e+00 5.8002851730703755e+00 1.6073470460023398e+01 2 0 1
4722 1574 3 4.0999999999999998e-01 2.4677283784608957e+00 3.0768710422072933e+00 1.5882176235927103e+01 3 0 1
225 75 3 4.0999999999999998e-01 6.0957574171551041e+00 9.0945208393941801e+00 1.3826216927801090e+01 -2 -3 0
3420 1140 3 4.0999999999999998e-01 8.1034282755456566e+00 9.8704037277721870e+00 1.9844172736457740e+01 1 3 0
543 181 3 4.0999999999999998e-01 2.2729521730661917e+00 8.8521530793842835e+00 1.2052937552100534e+01 2 -1 -6
5256 1752 3 4.0999999999999998e-01 7.0929969371076425e+00 6.3337046669507329e+00 1.9391593517865690e+01 2 2 0
3039 1013 3 4.0999999999999998e-01 1.3050354988671249e+00 1.5448114062777458e+00 1.1893714481907981e+01 2 4 0
4578 1526 3 4.0999999999999998e-01 7.9658967807472578e+00 8.1544630553652926e+00 1.2351287831282693e+01 0 0 -1
5325 1775 3 4.0999999999999998e-01 8.0930218616280358e-01 8.6672672200201504e+00 1.5821047730377300e+01 -1 -1 -1
2230 744 3 4.0999999999999998e-01 5.8710146164511894e+00 6.7791338360537470e+00 1.6782596510884286e+01 2 0 1
223 75 3 4.0999999999999998e-01 7.2068106953256672e+00 1.0098652958821773e+01 1.3065436242978842e+01 -2 -3 0
666 222 3 4.0999999999999998e-01 6.1463411665854641e+00 9.6318223472207478e+00 1.8186741801010399e+01 1 3 1
196 66 3 4.0999999999999998e-01 8.8474917852446406e+00 1.2157804585825924e+00 1.9894029422839644e+01 1 1 0
2758 920 3 4.0999999999999998e-01 9.3008062417504629e+00 6.3425931290138875e+00 1.8884880239264628e+01 2 0 -1
1848 616 3 4.0999999999999998e-01 8.5943827508946740e+00 5.1811921062090560e+00 1.4190983408473594e+01 3 1 -2
197 66 4 -8.1999999999999995e-01 9.1320102770480389e+00 2.1800554771946037e+00 1.9775912053006572e+01 1 1 0
5800 1934 3 4.0999999999999998e-01 2.8121325096738512e+00 8.4824039622832412e+00 1.6848474341663159e+01 2 0 -1
4217 1406 4 -8.1999999999999995e-01 7.7587645941711720e+00 7.3962370971395393e+00 1.6530087913715722e+01 3 1 5
1635 545 3 4.0999999999999998e-01 3.9676002123327394e+00 2.6089802051384683e+00 1.1933894407410776e+01 4 4 -1
2066 689 4 -8.1999999999999995e-01 3.9757231841350080e+00 2.0363551821187538e+00 1.8170400003357067e+01 5 -1 2
2223 741 3 4.0999999999999998e-01 5.6952306024608896e+00 1.0640205234062197e+00 1.5699597483997804e+01 -3 1 2
7258 2420 3 4.0999999999999998e-01 7.3162001365874669e+00 2.5537152901814966e+00 1.7167084968412222e+01 1 3 2
1055 352 4 -8.1999999999999995e-01 5.5737109690391256e+00 2.6808729287083293e+00 1.6164321273970966e+01 0 -2 -2
1054 352 3 4.0999999999999998e-01 4.9760266075536634e+00 2.3825947758129185e+00 1.6978124371652857e+01 0 -2 -2
2694 898 3 4.0999999999999998e-01 4.2933277280290536e+00 2.8173412226595187e+00 1.9697170106732550e+01 0 2 -1
5323 1775 3 4.0999999999999998e-01 1.6568368919208443e+00 8.4820688138199554e+00 1.4378581169531008e+01 -1 -1 -1
3879 1293 3 4.0999999999999998e-01 6.3183795839913870e+00 5.9803591510145298e+00 1.3804095619903290e+01 -1 3 0
2864 955 4 -8.1999999999999995e-01 5.7262149630822909e+00 4.8572115259383057e+00 1.9159283279643951e+01 0 1 -1
5255 1752 4 -8.1999999999999995e-01 7.8400751711636048e+00 7.0141037659979064e+00 1.9253829269089000e+01 2 2 0
3418 1140 3 4.0999999999999998e-01 9.6842198624365849e+00 9.7559851688593238e+00 1.9327124674353875e+01 1 3 0
3704 1235 4 -8.1999999999999995e-01 1.0941296420735109e+00 5.1537736194083594e+00 1.4850160544294530e+01 -3 4 0
871 291 3 4.0999999999999998e-01 2.1118074688913695e+00 5.8455640606928405e+00 1.0942144900235435e+01 2 2 1
665 222 4 -8.1999999999999995e-01 6.5578685558239300e+00 9.2935874199650872e+00 1.9115010618196688e+01 1 3 1
2865 955 3 4.0999999999999998e-01 5.0251592245885570e+00 4.6471293988907760e+00 1.9913466669225937e+01 0 1 -1
2007 669 3 4.0999999999999998e-01 2.7373466959763952e+00 5.1712075824540635e+00 1.4655326875846836e+01 0 -2 0
541 181 3 4.0999999999999998e-01 6.0791589044360106e-01 8.8483200665344697e+00 1.1909740570132094e+01 2 -1 -6
6016 2006 3 4.0999999999999998e-01 8.8411197903261822e+00 8.7649163031311748e+00 1.4176873107850110e+01 1 -4 -1
4577 1526 4 -8.1999999999999995e-01 8.3948081825679157e+00 7.7773128369862468e+00 1.1505631553088802e+01 0 0 -1
2716 906 3 4.0999999999999998e-01 9.1126532701896217e+00 5.8142512121879386e-01 1.4141956780585117e+01 4 3 1
4528 1510 3 4.0999999999999998e-01 3.1998623078822765e+00 4.9166561246782123e+00 1.7200066064826334e+01 1 0 1
1447 483 3 4.0999999999999998e-01 1.0398316673481345e+01 5.1007750821403635e+00 1.7380068128323146e+01 1 1 -2
1633 545 3 4.0999999999999998e-01 3.7872344213817692e+00 2.4340767423471728e+00 1.3609614819884007e+01 4 4 -1
3918 1306 3 4.0999999999999998e-01 9.9599029891730524e+00 2.9310307800641020e+00 1.3836440032094020e+01 3 0 0
4529 1510 4 -8.1999999999999995e-01 2.5047520323173877e+00 4.2732846073593640e+00 1.7667014696673483e+01 1 0 1
224 75 4 -8.1999999999999995e-01 7.0964181884226969e+00 9.1396650760107168e+00 1.3454071120805468e+01 -2 -3 0
3284 1095 4 -8.1999999999999995e-01 8.6798495987684792e+00 2.2223982059431169e+00 1.1128206740382430e+01 -4 2 -1
3705 1235 3 4.0999999999999998e-01 8.0730974022635882e-01 5.9965231895922013e+00 1.5295658878027451e+01 -3 4 0
7259 2420 4 -8.1999999999999995e-01 7.6865641661096635e+00 3.1838458881930367e+00 1.7917284873060172e+01 1 3 2
5129 1710 4 -8.1999999999999995e-01 6.3600568150485630e+00 5.8542305329710667e+00 1.0748663195721257e+01 0 0 -2
198 66 3 4.0999999999999998e-01 8.4820416114823267e+00 2.5214553363353813e+00 1.9079665209311884e+01 1 1 0
3878 1293 4 -8.1999999999999995e-01 5.4887038229733776e+00 6.4920099482108657e+00 1.3455459798779343e+01 -1 3 0
3904 1302 3 4.0999999999999998e-01 6.9369393965824422e-01 8.8779245381829632e+00 2.0127285657570578e+01 1 2 4
664 222 3 4.0999999999999998e-01 5.7381765945469487e+00 8.9453735142367616e+00 1.9655294168819868e+01 1 3 1
5963 1988 4 -8.1999999999999995e-01 1.0096063460667398e+01 4.9580271101448643e+00 1.3918187159077883e+01 -2 -1 0
542 181 4 -8.1999999999999995e-01 1.3822114918468700e+00 8.6859282699240783e+00 1.2555396241838229e+01 2 -1 -6
5964 1988 3 4.0999999999999998e-01 1.0333522296662263e+01 5.0511855534139167e+00 1.4905188563602394e+01 -2 -1 0
7260 2420 3 4.0999999999999998e-01 6.7839948840227757e+00 3.6637755401831376e+00 1.8067098522415897e+01 1 3 2
5801 1934 4 -8.1999999999999995e-01 3.2982571392331055e+00 8.4535404649476895e+00 1.7758144336814564e+01 2 0 -1
597 199 3 4.0999999999999998e-01 7.4097307894782451e+00 3.4427835458962699e+00 1.3517722493613400e+01 0 0 0
5802 1934 3 4.0999999999999998e-01 3.7536750560736243e+00 7.4999024389869176e+00 1.7772011709908174e+01 2 0 -1
1449 483 3 4.0999999999999998e-01 9.1691818180361562e+00 4.0603868481463605e+00 1.6854735082835010e+01 1 1 -2
3419 1140 4 -8.1999999999999995e-01 9.0934929211340716e+00 9.8801454132141853e+00 2.0124347641109061e+01 1 3 0
6017 2006 4 -8.1999999999999995e-01 9.5197196643160442e+00 8.9936625827526715e+00 1.4911397905262337e+01 1 -4 -1
2006 669 4 -8.1999999999999995e-01 3.7605163558604566e+00 4.9736143619812001e+00 1.4891953302520642e+01 0 -2 0
4530 1510 3 4.0999999999999998e-01 2.0510854762365187e+00 4.7301823156520557e+00 1.8448356735878512e+01 1 0 1
596 199 4 -8.1999999999999995e-01 7.0655421466084132e+00 2.6626380866209898e+00 1.3007973119864939e+01 0 0 0
872 291 4 -8.1999999999999995e-01 1.6551532132599676e+00 4.9240173726731236e+00 1.1184801105910021e+01 2 2 1
6044 2015 4 -8.1999999999999995e-01 4.2646806223799159e+00 9.2808003291718268e+00 2.0720753235158821e+01 3 2 1
2566 856 3 4.0999999999999998e-01 8.6395056254328939e-01 6.3437138026715036e+00 2.0073324626064778e+01 -2 -1 -2
6018 2006 3 4.0999999999999998e-01 1.0412827128903150e+01 8.9118567707447660e+00 1.4317212788913135e+01 1 -4 -1
3703 1235 3 4.0999999999999998e-01 4.3687990795981146e-01 4.3830237079397092e+00 1.4991719762669982e+01 -3 4 0
4576 1526 3 4.0999999999999998e-01 7.6678090724934824e+00 7.1688530699850599e+00 1.1151013746674383e+01 0 0 -1
2759 920 4 -8.1999999999999995e-01 1.0344640363803046e+01 6.2864835239153232e+00 1.8839260949173237e+01 2 0 -1
57 19 3 4.0999999999999998e-01 4.9052123438047168e+00 8.0075984279068777e+00 1.4055933229058507e+01 1 -1 0
4820 1607 4 -8.1999999999999995e-01 3.6174931287236514e+00 1.0264868796772118e+01 1.1373698839494018e+01 2 1 -1
2289 763 3 4.0999999999999998e-01 1.0256080223427817e+01 8.6527781468839979e+00 1.6662544147977052e+01 2 -2 -4
2288 763 4 -8.1999999999999995e-01 1.0308236502120581e+01 8.7671230930771262e+00 1.7712512186028057e+01 2 -2 -4
56 19 4 -8.1999999999999995e-01 4.7588542800350275e+00 8.8978669588767438e+00 1.4554880212506285e+01 1 -1 0
1630 544 3 4.0999999999999998e-01 2.7977565710570880e+00 3.3435871686304375e-01 1.5575541716806864e+01 -2 -1 -3
2693 898 4 -8.1999999999999995e-01 4.0176187610545950e+00 3.2716448129344653e+00 2.0546395482106671e+01 0 2 -1
6043 2015 3 4.0999999999999998e-01 3.8211300842393610e+00 1.0012271722678005e+01 2.0198513778966930e+01 3 2 1
4821 1607 3 4.0999999999999998e-01 4.2121619420872296e+00 9.7928597978666936e+00 1.0676721333157060e+01 2 1 -1
4293 1431 3 4.0999999999999998e-01 1.3622365164340065e+00 1.2636146067414096e+00 2.0639008205527848e+01 -1 0 -2
4292 1431 4 -8.1999999999999995e-01 1.4710272473359460e+00 2.2340392550501847e-01 2.0609431481248858e+01 -1 0 -2
2262 754 3 4.0999999999999998e-01 9.0117573446571608e+00 1.0494682560735264e+01 1.5953786052078918e+01 -2 -1 3
1860 620 3 4.0999999999999998e-01 5.5591524415456366e+00 1.0216581356334290e+01 1.5679207545039263e+01 -5 2 0
654 218 3 4.0999999999999998e-01 2.2652535125991080e+00 3.1208720432006669e+00 2.0868598335044123e+01 -1 -2 -2
6396 2132 3 4.0999999999999998e-01 8.5004060184939902e+00 3.4573736425874664e+00 2.0951466074118734e+01 -1 -2 -2
643 215 3 4.0999999999999998e-01 9.2616126510239560e+00 7.1791382719848207e-01 1.0876977563540335e+01 -2 4 -3
5130 1710 3 4.0999999999999998e-01 5.3602626287264563e+00 5.7772656653233678e+00 1.0587230666765695e+01 0 0 -2
5299 1767 3 4.0999999999999998e-01 1.0063647300521835e+01 8.5291047264280326e+00 1.0651510050949733e+01 0 1 -2
370 124 3 4.0999999999999998e-01 3.1939368651655835e+00 4.1454055317271854e-01 3.1051566571295133e+01 -1 2 1
5495 1832 4 -8.1999999999999995e-01 2.8957574755024971e+00 6.5826526005938968e+00 2.2175822278649267e+01 0 2 -3
971 324 4 -8.1999999999999995e-01 2.0108064927038769e+00 4.9521063332956903e+00 2.8867072196165996e+01 0 3 0
1148 383 4 -8.1999999999999995e-01 6.9462973679535533e+00 8.7266672176787878e+00 2.9217066257711352e+01 -4 -1 1
2022 674 3 4.0999999999999998e-01 8.2126285570508077e+00 7.0474663285350045e+00 2.6421367037251752e+01 1 4 1
2398 800 3 4.0999999999999998e-01 2.7768647932556340e-01 1.0188949586354006e+01 2.5090190354269350e+01 0 0 0
3138 1046 3 4.0999999999999998e-01 9.3572715857933559e+00 1.3474241590102563e+00 2.7156663409434458e+01 -2 2 -2
3096 1032 3 4.0999999999999998e-01 5.1685254548519914e+00 8.5374047377517304e+00 2.6636900495016285e+01 1 2 0
2425 809 3 4.0999999999999998e-01 4.7185466720207742e-01 7.6409631882682074e+00 2.7881480655576521e+01 0 4 -2
970 324 3 4.0999999999999998e-01 1.1758338300044866e+00 4.3850328707592574e+00 2.8619636797190093e+01 0 3 0
6290 2097 4 -8.1999999999999995e-01 6.9436712153036106e+00 6.5473191328108964e+00 3.0825890552764278e+01 -1 0 -1
7072 2358 3 4.0999999999999998e-01 1.0120599742089214e+01 3.2120053975616454e+00 2.7944016848808623e+01 3 0 2
6291 2097 3 4.0999999999999998e-01 6.8643855307950714e+00 6.0352252990730406e+00 2.9944798219482166e+01 -1 0 -1
7341 2447 3 4.0999999999999998e-01 2.0709442607238637e+00 9.1899655316763091e+00 2.8974329815982891e+01 -1 0 -1
4131 1377 3 4.0999999999999998e-01 4.9779334291157005e+00 2.0977340635204855e-01 2.4613402482222018e+01 0 -1 3
5104 1702 3 4.0999999999999998e-01 3.3547064101988706e+00 5.1137357787453341e+00 2.5922591153361509e+01 0 -1 -1
2180 727 4 -8.1999999999999995e-01 3.8773693691694509e+00 4.5073134383395859e+00 2.4124244449870677e+01 2 -2 -3
276 92 3 4.0999999999999998e-01 5.3507456759489020e+00 1.9444531350141672e+00 2.8122456581234314e+01 1 0 0
467 156 4 -8.1999999999999995e-01 1.0270929219000626e+00 3.9922547173089771e+00 2.5743805535115126e+01 -5 2 4
275 92 4 -8.1999999999999995e-01 5.8082997098810045e+00 1.0617447091514434e+00 2.7821737497931682e+01 1 0 0
91 31 3 4.0999999999999998e-01 4.0509934944744030e-01 2.0101560159160061e+00 2.9208011190961866e+01 -1 1 0
4519 1507 3 4.0999999999999998e-01 2.0616303883429352e+00 7.3145518394407354e+00 2.3625489198020706e+01 -4 0 1
3579 1193 3 4.0999999999999998e-01 5.2408651668225010e+00 3.7935568593389326e+00 2.4746771636637515e+01 -1 4 2
6409 2137 3 4.0999999999999998e-01 4.2833313068433245e+00 6.3886693406698765e+00 3.0711386526354271e+01 -1 0 -4
3094 1032 3 4.0999999999999998e-01 4.6031083878018588e+00 7.0916796572844563e+00 2.6281820651599421e+01 1 2 0
2179 727 3 4.0999999999999998e-01 4.0234871975031909e+00 5.4028153395108864e+00 2.3601589227051424e+01 2 -2 -3
5006 1669 4 -8.1999999999999995e-01 9.0764335341543081e+00 4.4533498816397534e+00 2.8482507508310725e+01 0 1 2
1350 450 3 4.0999999999999998e-01 8.6181330639347937e+00 1.0040329041127766e+01 2.4114318340353112e+01 3 0 0
972 324 3 4.0999999999999998e-01 1.7818416696101056e+00 5.6093093516297214e+00 2.9645854855630532e+01 0 3 0
6930 2310 3 4.0999999999999998e-01 1.9970028445219123e+00 1.5264055397687477e+00 2.3672667771085017e+01 -2 0 -2
1349 450 4 -8.1999999999999995e-01 8.8661950313825653e+00 1.0207823028919226e+01 2.5084080639382513e+01 3 0 0
2426 809 4 -8.1999999999999995e-01 6.0937634516961825e-01 8.4123037322951859e+00 2.8564678319112552e+01 0 4 -2
4467 1489 3 4.0999999999999998e-01 1.0522902834531232e+01 1.0136969777951910e+01 2.5061154451586614e+01 0 2 2
559 187 3 4.0999999999999998e-01 5.6726220867074346e+00 4.7690185184657192e+00 2.8279452442366736e+01 1 -1 1