LAMMPS data file via write_data, version 5 Jun 2019, timestep = 6000000

7349 atoms
5 atom types
4899 bonds
2 bond types
2451 angles
2 angle types
1 impropers
1 improper types

1.5519297081455363e-01 4.1845807029189409e+01 xlo xhi
1.5469297081455124e-01 4.1845307029189406e+01 ylo yhi
1.5469297081455124e-01 4.1845307029189406e+01 zlo zhi

#Masses
#
#1 12.01
#2 40.08
#3 1.01
#4 16
#5 16
#
#Bond Coeffs # harmonic
#
#1 20.4246 1.3042
#2 22.965 1.012

Atoms # full

2109 703 3 4.0999999999999998e-01 3.3159289988218638e-01 4.5753100744142090e+00 6.8549258919006872e+00 0 0 1
5277 1759 3 4.0999999999999998e-01 6.3689347470100852e+00 3.2918760349760987e+00 3.1439404698746909e+00 -4 2 2
3847 1283 3 4.0999999999999998e-01 6.4159301281964902e+00 8.4212567678269412e+00 3.0269720050314448e+00 -1 1 -1
2744 915 4 -8.1999999999999995e-01 9.6890350523785767e+00 6.0847215376237020e+00 9.7308931084081962e+00 -2 1 -2
346 116 3 4.0999999999999998e-01 1.7925027464108749e+00 1.5494205165077057e+00 9.5605790866378655e+00 1 3 -1
4019 1340 4 -8.1999999999999995e-01 2.0146886751178248e+00 3.2642015240178974e+00 2.9187947251828676e+00 3 1 1
1608 536 3 4.0999999999999998e-01 6.7669308435673137e-01 6.1380421726825862e-01 3.1777351552331865e+00 -1 -1 1
4242 1414 3 4.0999999999999998e-01 1.0279676338688015e+01 5.6523238255501038e+00 3.3966261187827156e+00 -1 3 -1
4556 1519 4 -8.1999999999999995e-01 7.3676212875530629e+00 7.6848357332527488e+00 9.3836647592906672e+00 2 0 -2
4270 1424 3 4.0999999999999998e-01 7.5933867000896385e+00 7.5736362472910734e+00 4.3205808003001389e-01 1 1 -1
1828 610 3 4.0999999999999998e-01 2.2414620863751722e+00 3.8233210900093342e+00 6.2570114154052048e+00 0 -1 0
1232 411 4 -8.1999999999999995e-01 4.1192049600482621e+00 7.3313010930691016e+00 6.0577936335032145e+00 0 2 0
1473 491 3 4.0999999999999998e-01 9.1263107954474112e+00 5.4017006871754270e-01 1.0413576881193487e+01 -1 2 -1
4857 1619 3 4.0999999999999998e-01 7.3440664897403520e+00 2.3922869547366712e-01 1.9607809797609852e+00 2 1 3
5911 1971 3 4.0999999999999998e-01 9.1851888089454157e+00 9.9595392324604521e+00 1.9038483975844589e+00 -3 1 1
2893 965 3 4.0999999999999998e-01 2.4465244707869327e+00 6.7129212099670363e+00 9.2645408247292842e+00 3 0 1
2223 741 3 4.0999999999999998e-01 8.2477667705872761e+00 4.9939252235727238e+00 6.6415609454541871e+00 -1 1 1
4555 1519 3 4.0999999999999998e-01 7.0421956781559070e+00 7.3863795908468468e+00 8.5290697257718797e+00 2 0 -2
2895 965 3 4.0999999999999998e-01 1.4639705991519740e+00 6.3463815734726703e+00 7.9605820564884127e+00 3 0 1
1606 536 3 4.0999999999999998e-01 5.3856383304297140e-01 5.1711183265530836e-01 4.8373610776995530e+00 -1 -1 1
5165 1722 4 -8.1999999999999995e-01 4.9048834132473980e+00 1.7056053836110117e+00 8.1417518781596581e+00 2 2 1
5445 1815 3 4.0999999999999998e-01 4.6729626687373251e+00 3.9748757503438572e+00 5.6792847172470466e+00 2 1 1
638 213 4 -8.1999999999999995e-01 2.8774277179456580e+00 9.0643873489995155e+00 1.6642569619945906e+00 0 0 0
4518 1506 3 4.0999999999999998e-01 7.1386522469850391e+00 9.3698380732665356e+00 6.1420831540124050e+00 -1 1 1
5166 1722 3 4.0999999999999998e-01 3.9300465883090943e+00 1.7129682190260471e+00 8.5771800332218309e+00 2 2 1
3325 1109 3 4.0999999999999998e-01 8.4114591224969715e+00 2.9501296630688012e+00 8.6876637229136282e+00 1 1 1
5641 1881 3 4.0999999999999998e-01 1.0004179420156067e+01 6.7357862390370755e+00 1.7406194028570505e+00 -2 4 2
3267 1089 3 4.0999999999999998e-01 1.0319167623900524e+01 5.2721523291711252e+00 5.5056806320794243e+00 2 1 -1
3327 1109 3 4.0999999999999998e-01 9.7234742897134918e+00 3.1773356045092171e+00 9.8484266920881911e+00 1 1 1
4557 1519 3 4.0999999999999998e-01 8.0872069717746378e+00 8.4401461937515911e+00 9.0908538495130138e+00 2 0 -2
4236 1412 3 4.0999999999999998e-01 2.9804792284736523e+00 1.3145484146314947e+00 3.9648149045851220e+00 -1 1 0
5077 1693 3 4.0999999999999998e-01 6.2492739536251403e+00 5.9703907405135714e+00 2.1479723227098559e+00 1 1 0
5510 1837 4 -8.1999999999999995e-01 5.3785269550736841e+00 9.2025598545461769e+00 2.1163281985807672e+00 1 2 3
740 247 4 -8.1999999999999995e-01 8.9501067049767469e-01 7.5953687021399734e+00 3.1684475749631302e-01 0 0 -1
5681 1894 4 -8.1999999999999995e-01 5.1631939381303003e+00 9.8666406687876229e+00 9.5104201807678734e+00 0 -2 0
1092 364 3 4.0999999999999998e-01 8.4669370970906623e+00 5.0582356720563348e+00 3.3718337777384022e+00 3 0 2
2086 696 3 4.0999999999999998e-01 3.5406462273152077e+00 5.8731282998173917e+00 4.4868564949805343e+00 1 1 0
3778 1260 3 4.0999999999999998e-01 1.0500142986437060e+01 3.4211290094663865e-01 7.5367231203535434e+00 1 1 0
3091 1031 3 4.0999999999999998e-01 8.0511742796476078e+00 2.7115283945642408e+00 2.9854792330327382e+00 0 2 0
1295 432 4 -8.1999999999999995e-01 7.5669978944230074e+00 1.9387599798433770e+00 7.8633265219759512e+00 -2 2 0
5443 1815 3 4.0999999999999998e-01 5.1616161574762636e+00 2.8370754574739969e+00 6.9208072344268210e+00 2 1 1
4020 1340 3 4.0999999999999998e-01 2.6518999003903043e+00 3.7856529215298695e+00 3.4503978920737759e+00 3 1 1
1607 536 4 -8.1999999999999995e-01 9.4930669040502680e-01 1.0737136895509911e+00 4.0840585392212958e+00 -1 -1 1
5275 1759 3 4.0999999999999998e-01 4.9661836017782770e+00 2.5024560275290226e+00 3.4909372900977234e+00 -4 2 2
296 99 4 -8.1999999999999995e-01 9.1362157109548097e+00 9.3607846400188741e+00 8.2250439277579055e+00 0 0 -2
639 213 3 4.0999999999999998e-01 2.3971190127598714e+00 8.2964342448082071e+00 1.1926744996035605e+00 0 0 0
2087 696 4 -8.1999999999999995e-01 3.6624757346033530e+00 4.8684176370579264e+00 4.3029328239006848e+00 1 1 0
4856 1619 4 -8.1999999999999995e-01 7.8870474116293794e+00 9.9301634118988535e-01 2.2527075539951533e+00 2 1 3
4235 1412 4 -8.1999999999999995e-01 3.9350240115727231e+00 1.1732088176778201e+00 4.2828931019743424e+00 -1 1 0
3093 1031 3 4.0999999999999998e-01 8.6884183910739594e+00 2.9564251957635639e+00 4.3958188187522653e+00 0 2 0
2221 741 3 4.0999999999999998e-01 6.6015621547147632e+00 4.7529126887066333e+00 6.4718547959679080e+00 -1 1 1
3848 1283 4 -8.1999999999999995e-01 7.0342621891764656e+00 7.8988720213020223e+00 3.6578008572950069e+00 -1 1 -1
2726 909 4 -8.1999999999999995e-01 5.1480187350287254e+00 2.7338868181724654e+00 3.9963415725597612e-01 1 -1 -1
3335 1112 4 -8.1999999999999995e-01 6.5686371829680636e+00 8.0304822974339185e+00 6.2922603218289224e+00 -1 -1 -2
1829 610 4 -8.1999999999999995e-01 1.3492343928731214e+00 3.3981186661671918e+00 6.2862943218142364e+00 0 -1 0
2743 915 3 4.0999999999999998e-01 9.0143781834272918e+00 6.7270039674285798e+00 9.3005425686351284e+00 -2 1 -2
5509 1837 3 4.0999999999999998e-01 4.3460563974008712e+00 9.2353721761634961e+00 2.0069154798629456e+00 1 2 3
5276 1759 4 -8.1999999999999995e-01 5.3940197280707984e+00 3.2822264810865311e+00 2.9596881216232154e+00 -4 2 2
1890 630 3 4.0999999999999998e-01 1.9133198402683704e+00 9.2315644275103317e+00 4.7330997184879848e+00 1 3 -1
4272 1424 3 4.0999999999999998e-01 6.5022289276966543e+00 8.7770479164438431e+00 7.2083543755574608e-01 1 1 -1
1830 610 3 4.0999999999999998e-01 1.1907772540525947e+00 2.5246646466618627e+00 5.7413977750204195e+00 0 -1 0
3334 1112 3 4.0999999999999998e-01 5.5209263503405728e+00 7.9207771398173188e+00 6.1765835845677719e+00 -1 -1 -2
1296 432 3 4.0999999999999998e-01 6.5763615111704468e+00 1.8774989353485807e+00 8.1948859643891829e+00 -2 2 0
2745 915 3 4.0999999999999998e-01 9.3489024320466694e+00 5.1740426289908266e+00 9.4669900719319013e+00 -2 1 -2
379 127 3 4.0999999999999998e-01 3.6717767583947221e+00 3.2302895180592381e+00 1.9050676300332542e-01 0 -1 0
2046 682 3 4.0999999999999998e-01 2.5111979951442049e+00 8.5706297960671343e+00 8.0422955630950774e+00 -1 -1 -1
3265 1089 3 4.0999999999999998e-01 9.9797583988594543e+00 3.7320039892110719e+00 5.9955230053334025e+00 2 1 -1
5511 1837 3 4.0999999999999998e-01 5.6977370738074828e+00 1.0169285243272679e+01 2.3154939058740331e+00 1 2 3
3849 1283 3 4.0999999999999998e-01 6.8322353614686167e+00 8.1186933111437103e+00 4.6241048445152124e+00 -1 1 -1
5379 1793 3 4.0999999999999998e-01 1.3733721668576064e+00 2.5405292513190147e-01 1.1869497806869032e+00 1 0 3
5079 1693 3 4.0999999999999998e-01 6.1583563394416450e+00 5.5499639477148301e+00 6.0296132214377851e-01 1 1 0
5642 1881 4 -8.1999999999999995e-01 1.0375687995952051e+01 7.2509790907580340e+00 9.5781019129492528e-01 -2 4 2
1233 411 3 4.0999999999999998e-01 3.5370080250650289e+00 7.8394120242968954e+00 5.3618456286108538e+00 0 2 0
4537 1513 3 4.0999999999999998e-01 2.9485868692359123e+00 5.2558403641035820e+00 4.7679921357436883e-01 1 0 0
3326 1109 4 -8.1999999999999995e-01 8.9843228685663465e+00 3.6222922478690780e+00 9.2941020424953305e+00 1 1 1
4018 1340 3 4.0999999999999998e-01 1.6279353540427777e+00 2.4236683134541854e+00 3.3673074638775513e+00 3 1 1
5444 1815 4 -8.1999999999999995e-01 5.4694597282764512e+00 3.6033381404286713e+00 6.3088699907736414e+00 2 1 1
2045 682 4 -8.1999999999999995e-01 2.8219475778166414e+00 9.5172534283768879e+00 7.9716194456533245e+00 -1 -1 -1
347 116 4 -8.1999999999999995e-01 2.6668300616525999e+00 1.0161997589609182e+00 9.7700998746962835e+00 1 3 -1
4538 1513 4 -8.1999999999999995e-01 3.1494425808727433e+00 6.2763532457313085e+00 4.1122269697356933e-01 1 0 0
3266 1089 4 -8.1999999999999995e-01 9.9679398053071733e+00 4.7345858112823631e+00 6.2842716537256731e+00 2 1 -1
5164 1722 3 4.0999999999999998e-01 5.1223138495609035e+00 8.0128882695446835e-01 7.7069846391990380e+00 2 2 1
1231 411 3 4.0999999999999998e-01 3.6486154811352205e+00 7.0773568138557081e+00 6.9281815352288385e+00 0 2 0
2222 741 4 -8.1999999999999995e-01 7.3300065077238941e+00 5.5008009325903950e+00 6.6143341252777343e+00 -1 1 1
3336 1112 3 4.0999999999999998e-01 6.9609663038560781e+00 7.0398044604265522e+00 6.1507338014185189e+00 -1 -1 -2
381 127 3 4.0999999999999998e-01 2.4184048642525529e+00 3.4749110652016979e+00 1.3272307991461905e+00 0 -1 0
2088 696 3 4.0999999999999998e-01 4.4396536896819887e+00 4.5686898896408552e+00 3.7616467525975046e+00 1 1 0
2894 965 4 -8.1999999999999995e-01 2.3418305723705708e+00 6.8287874403999922e+00 8.2394663623164472e+00 3 0 1
1294 432 3 4.0999999999999998e-01 7.6096200540838028e+00 2.2298641296397226e+00 6.8227776606954267e+00 -2 2 0
4539 1513 3 4.0999999999999998e-01 4.0403484115534587e+00 6.2678562601998795e+00 9.2009080528848497e-01 1 0 0
2146 716 3 4.0999999999999998e-01 7.0698626505793349e+00 1.1708455444886623e+00 3.9888704636557395e+00 1 2 -2
1090 364 3 4.0999999999999998e-01 8.1427995603535859e+00 6.8372609911176143e+00 3.3283512075835273e+00 3 0 2
1888 630 3 4.0999999999999998e-01 2.4956535120224714e+00 8.5903150497530714e+00 3.3379139452381357e+00 1 3 -1
4855 1619 3 4.0999999999999998e-01 8.7649110145869269e+00 7.0523723831208562e-01 1.8293714847542140e+00 2 1 3
1889 630 4 -8.1999999999999995e-01 2.1477806887373476e+00 8.3579130889450717e+00 4.2973646604140088e+00 1 3 -1
1091 364 4 -8.1999999999999995e-01 8.7274950388179846e+00 6.0287153055175144e+00 3.0700797386051799e+00 3 0 2
3092 1031 4 -8.1999999999999995e-01 8.1124040756042906e+00 3.4179630510851764e+00 3.7115831849270013e+00 0 2 0
280 94 3 4.0999999999999998e-01 9.4875482603826189e+00 1.0333960871544269e+01 9.7273056320303919e+00 2 0 -1
5962 1988 3 4.0999999999999998e-01 3.8761284285213766e+00 1.1141751024585913e+00 3.7361173832455485e-01 1 -1 1
2148 716 3 4.0999999999999998e-01 5.7758017313134866e+00 8.5189405564567033e-01 4.7408855869996627e+00 1 2 -2
5078 1693 4 -8.1999999999999995e-01 5.6666864973709030e+00 5.9961668939151052e+00 1.3474732235030615e+00 1 1 0
1698 566 3 4.0999999999999998e-01 8.2935690276891916e-01 7.4850960840673268e+00 4.7753060563722363e+00 2 0 -1
5682 1894 3 4.0999999999999998e-01 5.4043627229588616e+00 8.9893600460506526e+00 9.7736849691019447e+00 0 -2 0
5476 1826 3 4.0999999999999998e-01 1.0004348224659507e+01 1.1912293231250328e+00 5.0780860697017189e+00 1 0 -1
295 99 3 4.0999999999999998e-01 1.0050047703528408e+01 9.0716507698214546e+00 7.9147868099097272e+00 0 0 -2
5477 1826 4 -8.1999999999999995e-01 1.0141961498215341e+01 2.1686516090058183e+00 5.4096510627316503e+00 1 0 -1
2044 682 3 4.0999999999999998e-01 3.6770172155573921e+00 9.6748073048570138e+00 8.4855183996871890e+00 -1 -1 -1
380 127 4 -8.1999999999999995e-01 2.7085450914745914e+00 3.6429723489426364e+00 3.1577417641223671e-01 0 -1 0
4909 1637 3 4.0999999999999998e-01 8.6594634164697002e+00 2.4130557579739169e+00 5.0692234806444292e-01 0 -1 0
6170 2057 4 -8.1999999999999995e-01 4.3219378183278705e+00 1.0482619619922588e+01 5.9079439647414302e+00 -1 -1 2
2147 716 4 -8.1999999999999995e-01 6.7893794868473973e+00 9.5188128250570925e-01 4.9418944812610199e+00 1 2 -2
297 99 3 4.0999999999999998e-01 8.5679913062756317e+00 9.6250878721009698e+00 7.4422223609224742e+00 0 0 -2
2725 909 3 4.0999999999999998e-01 5.4206314115456182e+00 2.8932259449829640e+00 1.3737449221483458e+00 1 -1 -1
4234 1412 3 4.0999999999999998e-01 3.9868875497917902e+00 3.6101940333492116e-01 4.9114882940621465e+00 -1 1 0
3583 1195 3 4.0999999999999998e-01 7.7041147532791578e+00 6.9381060825821683e-01 8.8532773089001555e+00 -3 2 0
6171 2057 3 4.0999999999999998e-01 3.7542763589195536e+00 1.0206892254092526e+01 6.6461445673056563e+00 -1 -1 2
4517 1506 4 -8.1999999999999995e-01 7.4300231010170226e+00 1.0364666726496559e+01 6.2551140872153885e+00 -1 1 1
637 213 3 4.0999999999999998e-01 2.4594234214523443e+00 9.9861339142964045e+00 1.3329353849775603e+00 0 0 0
4030 1344 3 4.0999999999999998e-01 1.5491926659177770e+00 1.0477896188097745e+01 7.9341022573269164e+00 1 1 1
4106 1369 4 -8.1999999999999995e-01 7.3459364451077427e+00 3.0119646636556361e+00 1.5685252404166739e+01 1 2 -1
1921 641 3 4.0999999999999998e-01 3.6724528797830565e+00 2.8570874455821906e+00 1.1476068207608352e+01 0 1 -1
1378 460 3 4.0999999999999998e-01 2.1870947096342164e+00 5.7980013823612069e+00 1.9215884865242106e+01 0 1 -1
3909 1303 3 4.0999999999999998e-01 6.9267793192609046e+00 1.1261688952757321e+00 1.0673285127719396e+01 0 1 -1
1918 640 3 4.0999999999999998e-01 3.4100769205902850e+00 5.5558015549050106e+00 1.0998071931698997e+01 0 0 -4
4579 1527 3 4.0999999999999998e-01 6.8441086741398696e+00 4.1761153520188659e+00 1.4224910973221414e+01 -1 1 -1
4485 1495 3 4.0999999999999998e-01 3.9431657312300010e+00 8.0245430806281188e+00 1.4494204653903646e+01 2 2 0
1923 641 3 4.0999999999999998e-01 5.0730365303428107e+00 3.7274487475147122e+00 1.1737909053174965e+01 0 1 -1
6138 2046 3 4.0999999999999998e-01 7.2944825856277822e+00 9.8639164470404221e+00 1.3814016312996834e+01 0 1 -1
6136 2046 3 4.0999999999999998e-01 5.8269873268002303e+00 9.3037620505238916e+00 1.4477843442224886e+01 0 1 -1
5565 1855 3 4.0999999999999998e-01 2.9574170797403845e+00 3.9811252841729257e+00 1.5802864377828099e+01 1 1 0
4105 1369 3 4.0999999999999998e-01 7.3657069028127395e+00 2.0000567468031454e+00 1.5869100299432208e+01 1 2 -1
2711 904 4 -8.1999999999999995e-01 3.7202180320494818e+00 1.4797500089522357e+00 1.6711783202929009e+01 0 -1 2
7079 2360 4 -8.1999999999999995e-01 1.1235308026356645e+00 9.4484848961881891e+00 1.2908443078042183e+01 2 -1 1
1470 490 3 4.0999999999999998e-01 1.0183507779853151e+01 7.3363748421079258e+00 1.5816799502938569e+01 3 0 -1
2501 834 4 -8.1999999999999995e-01 3.4011470130112649e+00 6.7787702499761471e+00 1.8008147462883539e+01 -3 2 2
6816 2272 3 4.0999999999999998e-01 1.5935781547307488e+00 1.3142114827232179e+00 1.8699944777197803e+01 0 1 3
5043 1681 3 4.0999999999999998e-01 6.2493753426430976e+00 8.4926278882604809e+00 1.8750794317462397e+01 2 0 -2
592 198 3 4.0999999999999998e-01 5.9734737468259542e+00 2.3848326120923882e+00 1.9456871349685070e+01 0 0 1
2712 904 3 4.0999999999999998e-01 3.6183700412273878e+00 1.0705937335254649e+00 1.7657254369983665e+01 0 -1 2
7078 2360 3 4.0999999999999998e-01 2.0448702170646573e+00 9.2030121341716669e+00 1.2584087816064185e+01 2 -1 1
4107 1369 3 4.0999999999999998e-01 6.7095308069377273e+00 3.4662917081448330e+00 1.6306026281292326e+01 1 2 -1
4484 1495 4 -8.1999999999999995e-01 3.8168481216576984e+00 9.0679467634656294e+00 1.4346759411061965e+01 2 2 0
4606 1536 3 4.0999999999999998e-01 1.5491501010506379e+00 4.5227105626857460e+00 1.3613724656189278e+01 -1 0 2
6137 2046 4 -8.1999999999999995e-01 6.7323771220361088e+00 9.0361470591683624e+00 1.4113983736145931e+01 0 1 -1
3308 1103 4 -8.1999999999999995e-01 9.1326280852166715e+00 5.2131741675527730e+00 1.2492969847268192e+01 1 0 0
4581 1527 3 4.0999999999999998e-01 7.1989718549071808e+00 5.2531372802410985e+00 1.2925198936029224e+01 -1 1 -1
3908 1303 4 -8.1999999999999995e-01 7.0052889941806651e+00 1.9366053433551187e+00 1.1298894739851953e+01 0 1 -1
2129 710 4 -8.1999999999999995e-01 1.5516527255356938e+00 2.3758980713830560e-01 1.4055684355441461e+01 -1 -1 -2
4225 1409 3 4.0999999999999998e-01 3.2030314614395632e+00 5.8257300098799085e+00 1.4291000073365973e+01 0 0 0
6814 2272 3 4.0999999999999998e-01 6.1862205277710258e-01 2.5782137241204368e+00 1.8317325861698013e+01 0 1 3
4226 1409 4 -8.1999999999999995e-01 4.1188556824001461e+00 6.2703761495546857e+00 1.4327789587000821e+01 0 0 0
2787 929 3 4.0999999999999998e-01 3.2639811109093153e-01 8.2215145370482166e+00 1.6525028202885565e+01 1 2 1
1919 640 4 -8.1999999999999995e-01 3.2950932341300878e+00 6.6086306139788356e+00 1.0941373470731744e+01 0 0 -4
7080 2360 3 4.0999999999999998e-01 9.8763773835304947e-01 9.1752761764401320e+00 1.3888978839008580e+01 2 -1 1
6116 2039 4 -8.1999999999999995e-01 4.2514505815710617e+00 4.6374870352538933e+00 2.0563925554756668e+01 0 0 -1
1120 374 3 4.0999999999999998e-01 8.4062554009680586e+00 1.1433205015248966e+00 1.4345791530886915e+01 -1 1 3
4483 1495 3 4.0999999999999998e-01 3.6498288126989920e+00 9.5039874695861180e+00 1.5283480790542676e+01 2 2 0
3907 1303 3 4.0999999999999998e-01 6.7291945216336018e+00 2.8139005327841535e+00 1.0911580730803651e+01 0 1 -1
2031 677 3 4.0999999999999998e-01 1.0035922108246510e+01 2.5490035958535056e+00 1.3617305484616946e+01 1 0 -1
4580 1527 4 -8.1999999999999995e-01 6.5416719029455770e+00 4.9635691531168815e+00 1.3653861141506155e+01 -1 1 -1
7099 2367 3 4.0999999999999998e-01 2.2125525312832811e-01 5.2070722208084472e+00 1.4707145587806632e+01 4 0 1
1121 374 4 -8.1999999999999995e-01 8.8914480127169000e+00 1.3391965171942872e+00 1.3481828628081969e+01 -1 1 3
6874 2292 3 4.0999999999999998e-01 7.1710950842634897e+00 7.5723574462655723e+00 1.5294147993351794e+01 0 2 1
66 22 3 4.0999999999999998e-01 5.9826586013055687e+00 5.3493402779802830e+00 1.6696000847471939e+01 -1 0 -1
6317 2106 4 -8.1999999999999995e-01 9.9655703979158616e+00 7.8246253757635991e+00 1.3022774577528569e+01 -4 -1 -2
593 198 4 -8.1999999999999995e-01 6.7984954536405153e+00 2.4297191477722517e+00 1.8855294283318088e+01 0 0 1
4608 1536 3 4.0999999999999998e-01 1.4555148502474327e+00 3.0610809400591519e+00 1.4548230451825901e+01 -1 0 2
3189 1063 3 4.0999999999999998e-01 5.4865627886548785e+00 6.6007590092302078e+00 2.0105028451333418e+01 -1 0 2
2130 710 3 4.0999999999999998e-01 9.4816537744839713e-01 9.5150719167086817e-01 1.4574228106299460e+01 -1 -1 -2
5564 1855 4 -8.1999999999999995e-01 3.3812493265640717e+00 4.0946174452792841e+00 1.6698934059602816e+01 1 1 0
90 30 3 4.0999999999999998e-01 9.3031841500566603e+00 4.2201818161980791e+00 1.5958692441908077e+01 0 1 3
1652 551 4 -8.1999999999999995e-01 3.2799771879133686e+00 1.3653802372039305e+00 1.2543290088888423e+01 1 3 -1
1380 460 3 4.0999999999999998e-01 1.1322431191450650e+00 4.6957278580254460e+00 1.8726362345771761e+01 0 1 -1
3307 1103 3 4.0999999999999998e-01 9.5016278911256347e+00 5.3863526947797116e+00 1.1531321434313496e+01 1 0 0
1931 644 4 -8.1999999999999995e-01 1.0350673291726762e+00 5.7951851587423464e+00 1.2804224706180658e+01 1 4 -1
3188 1063 4 -8.1999999999999995e-01 5.2986928996214004e+00 7.5924127341943368e+00 1.9914771895388281e+01 -1 0 2
2710 904 3 4.0999999999999998e-01 3.3853367016797260e+00 2.4670291208568953e+00 1.6754141895259032e+01 0 -1 2
6591 2197 3 4.0999999999999998e-01 2.4129617184940741e+00 1.0234955075338650e+01 1.8232587819338569e+01 0 3 1
1922 641 4 -8.1999999999999995e-01 4.2767398714725999e+00 3.6124685257072930e+00 1.1176820246307587e+01 0 1 -1
1920 640 3 4.0999999999999998e-01 4.1992486381374112e+00 7.0460166707313094e+00 1.1187323022601756e+01 0 0 -4
6875 2292 4 -8.1999999999999995e-01 7.0906010950134304e+00 7.0619806845169126e+00 1.6182159509075255e+01 0 2 1
3482 1161 4 -8.1999999999999995e-01 1.0036041342894282e+00 9.7324049593058923e+00 1.5707498174782497e+01 3 -2 0
1651 551 3 4.0999999999999998e-01 2.5610618464998338e+00 8.1912029701004330e-01 1.3121194559074160e+01 1 3 -1
5414 1805 4 -8.1999999999999995e-01 3.2073980107446474e+00 8.5511334699517461e-01 1.9201845488714198e+01 -1 0 1
5415 1805 3 4.0999999999999998e-01 2.5978345580646480e+00 3.5512729404285182e-01 1.9831849174916172e+01 -1 0 1
1930 644 3 4.0999999999999998e-01 5.0398384804986252e-01 6.6350731538142664e+00 1.2907092598569667e+01 1 4 -1
6815 2272 4 -8.1999999999999995e-01 6.3371869835324057e-01 1.4991101777989613e+00 1.8350759739912096e+01 0 1 3
6589 2197 3 4.0999999999999998e-01 1.8483298704244988e+00 8.9782748845741853e+00 1.9051901697087565e+01 0 3 1
1352 451 4 -8.1999999999999995e-01 9.3297126801017622e+00 1.4666501429541536e+00 1.9456112387425012e+01 1 -2 1
88 30 3 4.0999999999999998e-01 8.9053483042655550e+00 5.6756753275913008e+00 1.6393844210013789e+01 0 1 3
1471 491 3 4.0999999999999998e-01 9.9659846771382981e+00 1.1409080529354980e+00 1.1651770915926491e+01 -1 2 -1
6318 2106 3 4.0999999999999998e-01 9.4490340803973485e+00 8.7353399867640249e+00 1.2899554645264971e+01 -4 -1 -2
1932 644 3 4.0999999999999998e-01 1.7043419376075748e+00 5.9256302928126754e+00 1.2023181486669380e+01 1 4 -1
3309 1103 3 4.0999999999999998e-01 9.6304415036392701e+00 4.4720418606373977e+00 1.3004791827349298e+01 1 0 0
1379 460 4 -8.1999999999999995e-01 1.8751383765972873e+00 4.8209409166115851e+00 1.9402197043233969e+01 0 1 -1
4227 1409 3 4.0999999999999998e-01 4.8949779637620709e+00 5.6458087388522049e+00 1.4131567017955270e+01 0 0 0
1902 634 3 4.0999999999999998e-01 1.0517884756262069e+01 2.8305743754602788e+00 1.9496840280661687e+01 0 0 2
6117 2039 3 4.0999999999999998e-01 4.6574924932299879e+00 3.7137806177417430e+00 2.0753443215751943e+01 0 0 -1
5042 1681 4 -8.1999999999999995e-01 6.4643913077305060e+00 9.0438408519822850e+00 1.7891734129824123e+01 2 0 -2
4938 1646 3 4.0999999999999998e-01 2.1893040098566033e-01 1.5801319993063081e+00 1.6694510933239403e+01 0 1 2
1122 374 3 4.0999999999999998e-01 8.1566947876439038e+00 1.5730145303033669e+00 1.2760773736169812e+01 -1 1 3
1653 551 3 4.0999999999999998e-01 4.1392550400232215e+00 1.6236011498884300e+00 1.3088556853497680e+01 1 3 -1
3187 1063 3 4.0999999999999998e-01 5.0723296638574684e+00 8.1700274315782622e+00 2.0650834087622091e+01 -1 0 2
1353 451 3 4.0999999999999998e-01 8.4390109989133606e+00 1.8439457438679168e+00 1.9107065936737310e+01 1 -2 1
6876 2292 3 4.0999999999999998e-01 6.7426731317594859e+00 7.7078563533118265e+00 1.6863905322215505e+01 0 2 1
65 22 4 -8.1999999999999995e-01 5.8255349701063386e+00 4.5510960182258371e+00 1.7303446041008275e+01 -1 0 -1
1480 494 3 4.0999999999999998e-01 9.0480663906266088e+00 9.6851639200855058e+00 1.9486256692212780e+01 -1 1 -1
5563 1855 3 4.0999999999999998e-01 3.2734243203761477e+00 5.0374075174357200e+00 1.7112707967978402e+01 1 1 0
64 22 3 4.0999999999999998e-01 4.7979493531361390e+00 4.2819427128713743e+00 1.7235701326325451e+01 -1 0 -1
6590 2197 4 -8.1999999999999995e-01 2.2009375808983660e+00 9.2412132116732515e+00 1.8147793352769035e+01 0 3 1
594 198 3 4.0999999999999998e-01 6.5547337742864649e+00 3.3192718288163352e+00 1.8238290206242326e+01 0 0 1
4607 1536 4 -8.1999999999999995e-01 1.8982238549463577e+00 3.9787304218345594e+00 1.4479550620561270e+01 -1 0 2
3647 1216 4 -8.1999999999999995e-01 7.6014675718195122e+00 2.5886385845313281e-01 1.5700990297262956e+01 2 0 0
3438 1146 3 4.0999999999999998e-01 2.8928955862848954e-01 1.0493548934115873e+01 1.1776380175056534e+01 -1 2 0
6316 2106 3 4.0999999999999998e-01 9.4775513133380223e+00 6.9480812659161311e+00 1.2848245698411580e+01 -4 -1 -2
5041 1681 3 4.0999999999999998e-01 5.7613698789780203e+00 9.7963433418576393e+00 1.7795853592832128e+01 2 0 -2
1481 494 4 -8.1999999999999995e-01 8.8740691805243781e+00 1.0225748508923330e+01 1.8609397756967393e+01 -1 1 -1
903 301 3 4.0999999999999998e-01 6.3645523836799454e+00 7.1421697967469049e+00 1.0965016813490083e+01 0 -1 -2
901 301 3 4.0999999999999998e-01 6.0435283758498102e+00 7.5908958722010018e+00 1.2552425182409927e+01 0 -1 -2
2500 834 3 4.0999999999999998e-01 4.0323284143474796e+00 7.1373917671637646e+00 1.8743338921985341e+01 -3 2 2
1482 494 3 4.0999999999999998e-01 8.0178839268538820e+00 9.8177560397468984e+00 1.8182112929660278e+01 -1 1 -1
3483 1161 3 4.0999999999999998e-01 4.8450001839953899e-01 1.0501338871318028e+01 1.5214825229663608e+01 3 -2 0
902 301 4 -8.1999999999999995e-01 5.6743992728676167e+00 7.5511031805529516e+00 1.1614253459995739e+01 0 -1 -2
6115 2039 3 4.0999999999999998e-01 3.4904303829755090e+00 4.5337700979193700e+00 1.9893687619154704e+01 0 0 -1
5413 1805 3 4.0999999999999998e-01 3.7393383572139931e+00 1.4740669030538058e+00 1.9856819756981647e+01 -1 0 1
2502 834 3 4.0999999999999998e-01 2.8848259967835546e+00 7.6764963209517205e+00 1.7779818925301733e+01 -3 2 2
3481 1161 3 4.0999999999999998e-01 1.3146836876643446e+00 9.9862901328595068e+00 1.6678664310581702e+01 3 -2 0
89 30 4 -8.1999999999999995e-01 9.7536915351298177e+00 5.0914048045243998e+00 1.6256607057823754e+01 0 1 3
1351 451 3 4.0999999999999998e-01 9.0672631793910625e+00 7.4124735918335638e-01 2.0184664661503838e+01 1 -2 1
933 311 3 4.0999999999999998e-01 1.0367836025555338e+01 7.8968076568762013e-01 1.8085757521832448e+01 -1 0 0
348 116 3 4.0999999999999998e-01 2.5302553013795421e+00 1.0983384361644584e+00 1.0791740176260921e+01 1 3 -1
1472 491 4 -8.1999999999999995e-01 9.9281466519060526e+00 1.1217715675336877e+00 1.0662443366778998e+01 -1 2 -1
3270 1090 3 4.0999999999999998e-01 1.0557095694202957e+01 5.3377913663789132e+00 2.0399990961100933e+01 4 0 -2
5954 1985 4 -8.1999999999999995e-01 3.0428737496392717e+00 9.5840156252894211e+00 2.0996525587205380e+01 -1 2 -2
619 207 3 4.0999999999999998e-01 4.7738270948358821e+00 4.8649860578475040e-01 1.5658749736477937e+01 0 1 -2
5279 1760 4 -8.1999999999999995e-01 9.2143170479289385e+00 1.0539888991140758e+01 1.3182687105438758e+01 0 0 1
1245 415 3 4.0999999999999998e-01 9.7189490008003965e+00 7.8515860834470974e+00 2.0902403227963571e+01 0 0 1
629 210 4 -8.1999999999999995e-01 2.1216188088550805e+00 4.5886927341944341e+00 2.9749127617682127e+01 2 -1 -1
2463 821 3 4.0999999999999998e-01 8.0857837081104567e+00 9.4293358715932152e-01 2.8996892259832791e+01 3 1 0
1333 445 3 4.0999999999999998e-01 3.0712945247492995e+00 2.8028110686266539e+00 2.7897700110073217e+01 1 1 -1
630 210 3 4.0999999999999998e-01 3.1021594898289382e+00 4.7549480185213673e+00 3.0042543178012572e+01 2 -1 -1
5733 1911 3 4.0999999999999998e-01 8.8604320618424044e+00 8.4299854528732965e+00 2.3579060828341344e+01 0 -1 -1
5731 1911 3 4.0999999999999998e-01 9.7692635024890500e+00 9.8293518527978829e+00 2.3582996913187117e+01 0 -1 -1
628 210 3 4.0999999999999998e-01 2.1186890896283481e+00 4.2257523103270120e+00 2.8735936897493438e+01 2 -1 -1
1382 461 4 -8.1999999999999995e-01 5.5019561219335023e+00 6.0592129725896244e+00 2.7622079848513355e+01 0 -1 1
4442 1481 4 -8.1999999999999995e-01 1.0466829390746360e+01 4.8013095189462369e+00 2.4657309862556627e+01 0 1 -2
86 29 4 -8.1999999999999995e-01 3.5965262417205812e+00 7.9242885968203511e+00 2.8044140417325231e+01 0 -1 1
2577 859 3 4.0999999999999998e-01 3.7927508147349109e+00 5.1632423009989710e+00 2.7868054515676413e+01 0 2 1
7265 2422 4 -8.1999999999999995e-01 8.7637800079723771e+00 6.4580899232054900e+00 3.0118255197002075e+01 -1 1 0
656 219 4 -8.1999999999999995e-01 2.9407672918072936e+00 6.5859462756290341e+00 2.2288405696450099e+01 1 1 2
4216 1406 3 4.0999999999999998e-01 6.1025876658943226e+00 3.9619666765578789e+00 2.5301172958854281e+01 2 0 2
2329 777 3 4.0999999999999998e-01 2.3124414121128849e+00 9.4687656545094756e-01 2.3591608290482807e+01 -2 -2 -1
17 6 4 -8.1999999999999995e-01 5.6065365604343997e-01 8.1126997643049705e+00 2.3743720991101863e+01 0 -1 -3
1250 417 4 -8.1999999999999995e-01 7.3177293037618774e-01 4.5387901857876090e-01 2.7668760211103031e+01 -1 2 -2
657 219 3 4.0999999999999998e-01 2.1519962795548162e+00 5.9899143478703332e+00 2.2353425744392343e+01 1 1 2
3548 1183 4 -8.1999999999999995e-01 1.7885584214565200e+00 1.8654926650891115e+00 3.1290519705970787e+01 1 0 -1
1690 564 3 4.0999999999999998e-01 1.0102532569083280e+01 1.7736670308625120e+00 2.3821938588614081e+01 1 1 1
1218 406 3 4.0999999999999998e-01 8.2223458946418084e+00 2.2036347720182885e+00 2.2738605350854431e+01 1 1 2
3144 1048 3 4.0999999999999998e-01 6.7210628067233120e+00 1.0206744802869242e+01 2.7744652100429725e+01 1 0 3
1259 420 4 -8.1999999999999995e-01 3.1592544395387092e+00 8.2510216976808177e+00 2.5265758192595520e+01 2 0 1
2423 808 4 -8.1999999999999995e-01 4.2599308582207076e+00 6.2671302552174257e-01 3.0531782720669181e+01 1 3 0
4359 1453 3 4.0999999999999998e-01 8.1946652506579980e+00 5.4019086841780259e+00 2.8915403017837168e+01 3 1 1
3118 1040 3 4.0999999999999998e-01 1.0551898440783088e+01 8.0067994021712536e+00 2.6578739695964305e+01 3 0 -1
1381 461 3 4.0999999999999998e-01 6.3516955167520193e+00 5.4592648183259884e+00 2.7841576380443847e+01 0 -1 1
1217 406 4 -8.1999999999999995e-01 7.1637005850967093e+00 2.1288667703261015e+00 2.2604584050559563e+01 1 1 2
1561 521 3 4.0999999999999998e-01 7.3642558894129104e+00 9.8058288661596595e+00 2.4043331582034725e+01 0 2 0
3564 1188 3 4.0999999999999998e-01 1.5764385559762355e+00 7.7549685880169950e+00 2.8319016580355573e+01 1 -1 2