LAMMPS data file via write_data, version 5 Jun 2019, timestep = 18000000

7349 atoms
5 atom types
4899 bonds
2 bond types
2451 angles
2 angle types
1 impropers
1 improper types

1.5519297081455363e-01 4.1845807029189409e+01 xlo xhi
1.5469297081455124e-01 4.1845307029189406e+01 ylo yhi
1.5469297081455124e-01 4.1845307029189406e+01 zlo zhi

#Masses
#
#1 12.01
#2 40.08
#3 1.01
#4 16
#5 16
#
#Bond Coeffs # harmonic
#
#1 20.4246 1.3042
#2 22.965 1.012

Atoms # full

5155 1719 3 4.0999999999999998e-01 3.7365282724083521e-01 2.3581604215822738e+00 8.9958716742573355e+00 -1 2 3
1044 348 3 4.0999999999999998e-01 5.9579849894161256e+00 1.6007838890580743e+00 8.6453323072562345e+00 3 3 1
6990 2330 3 4.0999999999999998e-01 1.0450643196104561e+01 6.3022460161391392e+00 3.7604306834565260e+00 -4 -4 3
2422 808 3 4.0999999999999998e-01 5.2305047746063560e-01 7.2059148723391289e+00 7.2076633516853974e+00 3 2 0
4071 1357 3 4.0999999999999998e-01 7.6704670330195794e+00 7.0914811461148579e+00 5.9580907959895244e+00 1 -1 1
1042 348 3 4.0999999999999998e-01 5.6414155703599684e+00 1.7132684792663213e+00 1.0343410846998264e+01 3 3 1
7166 2389 4 -8.1999999999999995e-01 7.6806482563775020e+00 9.2113725195345424e+00 8.0687824645267237e-01 1 3 -2
4984 1662 3 4.0999999999999998e-01 1.1313617476128526e+00 4.8547323810861105e+00 6.8559611794252202e+00 3 0 3
5953 1985 3 4.0999999999999998e-01 1.9637929302846759e+00 6.1792717803272834e-01 4.1568464146051189e+00 1 1 -2
2974 992 3 4.0999999999999998e-01 4.7098897213790440e+00 5.5989378268178749e+00 4.2306854513989247e+00 -2 -2 6
691 231 3 4.0999999999999998e-01 2.3072799408649445e+00 8.1334213811411455e+00 8.8361317028800512e-01 1 0 2
3312 1104 3 4.0999999999999998e-01 6.1383434739174429e+00 7.3082309706609685e+00 7.7375715450389029e+00 -1 -2 3
5698 1900 3 4.0999999999999998e-01 7.6340457777931920e+00 5.4813516064287189e+00 8.1080644664398562e+00 2 1 0
3035 1012 4 -8.1999999999999995e-01 8.4373640230965368e+00 1.9261562750046581e+00 8.7549221798884513e-01 -5 1 0
3999 1333 3 4.0999999999999998e-01 1.0860484225459253e+00 6.1523345383091996e+00 3.2745112934868299e+00 2 6 1
6588 2196 3 4.0999999999999998e-01 7.2725031753248741e+00 3.0057236879831133e+00 5.1601569763106028e+00 2 1 0
7006 2336 3 4.0999999999999998e-01 2.2495070263646140e+00 8.5587286840190178e+00 3.9995233960560630e+00 0 -1 0
6989 2330 4 -8.1999999999999995e-01 9.8001230904990724e+00 6.4391117109328597e+00 4.5019976245571449e+00 -4 -4 3
3034 1012 3 4.0999999999999998e-01 8.7018398689285181e+00 1.2831637873776334e+00 1.6308633127759551e+00 -5 1 0
3550 1184 3 4.0999999999999998e-01 2.1668824750602189e+00 8.6065106393344433e+00 7.4947240585186492e+00 2 1 3
3552 1184 3 4.0999999999999998e-01 6.8647771701067561e-01 9.2557720754371378e+00 8.1052720145599064e+00 2 1 3
6852 2284 3 4.0999999999999998e-01 7.1088498440324583e+00 7.5956608128326542e-01 5.6432778845374205e+00 1 1 3
445 149 3 4.0999999999999998e-01 2.8936184235254174e+00 6.2376534740821379e+00 1.0452973394632570e+01 -1 2 -5
2504 835 4 -8.1999999999999995e-01 5.4634909338148470e+00 9.4864015090841853e+00 4.7800441058230794e+00 5 3 3
2976 992 3 4.0999999999999998e-01 6.0210941460513840e+00 5.4828578838869797e+00 4.9339149776517317e+00 -2 -2 6
1436 479 4 -8.1999999999999995e-01 1.0295972541133434e+01 4.2118662852354403e+00 9.8162852828815090e+00 -1 -1 2
7167 2389 3 4.0999999999999998e-01 7.5558449243494668e+00 1.0073569356017824e+01 1.5162959265916547e+00 1 3 -2
7005 2335 3 4.0999999999999998e-01 7.5586312593875791e+00 3.6503231952899435e+00 7.2220524918694622e+00 7 1 2
1842 614 3 4.0999999999999998e-01 3.2802178658921410e+00 5.2344576817237485e+00 2.1560329080316256e+00 0 1 -1
1043 348 4 -8.1999999999999995e-01 6.3135745017160456e+00 1.8102627944605991e+00 9.5435841819643130e+00 3 3 1
4030 1344 3 4.0999999999999998e-01 4.7166301877502335e+00 8.8253021017751774e+00 6.4280205873674245e-01 3 0 1
4031 1344 4 -8.1999999999999995e-01 3.9450759097109480e+00 8.7239069351842691e+00 1.3448252270169112e+00 3 0 1
3519 1173 3 4.0999999999999998e-01 6.9485980483369281e-01 4.0533173323163050e+00 2.8962961085968657e+00 0 -1 4
1083 361 3 4.0999999999999998e-01 4.1743396375169413e+00 8.5484620270751730e+00 7.1552224014751076e+00 -1 -6 0
1841 614 4 -8.1999999999999995e-01 3.0405631571744287e+00 6.1688190762395205e+00 2.5191669189876587e+00 0 1 -1
2546 849 4 -8.1999999999999995e-01 1.4954002406024276e+00 9.7021351813390133e+00 3.2783755571877005e+00 -1 1 -2
411 137 3 4.0999999999999998e-01 7.9988351597444955e+00 3.7002446709815109e+00 3.3646117785949294e+00 1 -4 0
4069 1357 3 4.0999999999999998e-01 6.6744862013614563e+00 8.0140500962665246e+00 5.2883195241219623e+00 1 -1 1
6586 2196 3 4.0999999999999998e-01 5.8774722667816564e+00 2.3231347030784404e+00 5.9007514266284504e+00 2 1 0
693 231 3 4.0999999999999998e-01 1.1984484602884287e+00 7.0539367867545515e+00 1.5490088532148070e+00 1 0 2
6660 2220 3 4.0999999999999998e-01 3.8436349723942733e+00 3.0272557934361582e-01 2.6568440625853587e+00 1 2 4
3551 1184 4 -8.1999999999999995e-01 1.2831389543921203e+00 8.4271507259052818e+00 8.0162334191587536e+00 2 1 3
7003 2335 3 4.0999999999999998e-01 7.1543465207403942e+00 3.3829766088376334e+00 8.7509150922869736e+00 7 1 2
2902 968 3 4.0999999999999998e-01 3.5892460881644204e+00 3.6727479878997502e+00 6.7566015262242296e-01 5 4 1
587 196 4 -8.1999999999999995e-01 6.4697580257822249e+00 1.0546383691574377e+01 7.6175850750931158e+00 -1 2 2
6988 2330 3 4.0999999999999998e-01 9.5784176330559987e+00 5.5641434003441992e+00 4.9020082763086830e+00 -4 -4 3
6587 2196 4 -8.1999999999999995e-01 6.8094817994016621e+00 2.7421004798126201e+00 6.0584103446778128e+00 2 1 0
7190 2397 4 -8.1999999999999995e-01 3.6991495052887839e+00 2.9744733623019539e+00 5.7960552338826394e+00 1 -2 1
3310 1104 3 4.0999999999999998e-01 5.2264629049250821e+00 7.9447892084215415e+00 9.0093922440002423e+00 -1 -2 3
1840 614 3 4.0999999999999998e-01 3.3993868282900017e+00 7.0074826067174030e+00 1.9912593952192914e+00 0 1 -1
1081 361 3 4.0999999999999998e-01 3.1115128713402713e+00 8.4970451615831628e+00 5.8634894357447918e+00 -1 -6 0
5952 1984 3 4.0999999999999998e-01 2.1666296922208135e+00 2.2058419035510739e+00 2.9810731139038511e+00 1 -5 2
5166 1722 3 4.0999999999999998e-01 6.9361883132937745e+00 5.1928299765764656e+00 1.7493848290111644e+00 2 4 2
588 196 3 4.0999999999999998e-01 6.2120747471744187e+00 9.5703029028474944e+00 7.4931115136930417e+00 -1 2 2
410 137 4 -8.1999999999999995e-01 8.5067363673952183e+00 3.1572524069104029e+00 4.1174870408433000e+00 1 -4 0
1082 361 4 -8.1999999999999995e-01 3.5409803931399360e+00 9.1343733064545525e+00 6.5625353398643371e+00 -1 -6 0
5214 1738 3 4.0999999999999998e-01 8.7226905978354825e+00 7.1662612727131236e+00 2.9445330266987306e+00 0 -4 1
5165 1722 4 -8.1999999999999995e-01 7.0853616888860449e+00 4.1884277391780547e+00 1.6584881203813153e+00 2 4 2
4986 1662 3 4.0999999999999998e-01 1.9765795899418879e+00 3.9326994837040470e+00 8.0544174038703087e+00 3 0 3
5157 1719 3 4.0999999999999998e-01 1.3622620268402243e+00 1.3264325207544152e+00 8.4503868624380871e+00 -1 2 3
814 272 3 4.0999999999999998e-01 1.5240483736883230e+00 7.6481978519610809e+00 9.9129019802126042e+00 3 -2 1
7189 2397 3 4.0999999999999998e-01 2.8673834917196159e+00 3.2465748288387464e+00 6.3701952607965406e+00 1 -2 1
2503 835 3 4.0999999999999998e-01 4.9910800206041843e+00 9.9779466960088499e+00 4.0221585540332585e+00 5 3 3
1893 631 3 4.0999999999999998e-01 1.0352361293410016e+01 5.2044807288410422e-01 9.5781535993745681e+00 1 3 2
1437 479 3 4.0999999999999998e-01 9.3809351011267434e+00 4.0398451170246092e+00 9.2915052990159435e+00 -1 -1 2
3609 1203 3 4.0999999999999998e-01 3.2064529954392640e-01 1.9560395720088015e+00 5.1519174447777472e+00 3 1 -2
692 231 4 -8.1999999999999995e-01 1.5073182468256112e+00 7.5094488362377882e+00 6.9308974774959631e-01 1 0 2
5950 1984 3 4.0999999999999998e-01 3.3738796201301327e+00 2.3862257446584860e+00 4.0444547444565577e+00 1 -5 2
2975 992 4 -8.1999999999999995e-01 5.2356928380094478e+00 4.9128824018416921e+00 4.7108917602439133e+00 -2 -2 6
6904 2302 3 4.0999999999999998e-01 9.9552628337932880e+00 2.3970870048783848e+00 5.5930521814546328e+00 -1 1 3
7008 2336 3 4.0999999999999998e-01 3.0831637906815836e+00 7.1032561735087780e+00 3.8222154602809706e+00 0 -1 0
5699 1900 4 -8.1999999999999995e-01 7.6916881227762479e+00 6.4958369964343303e+00 7.8846464151377011e+00 2 1 0
5951 1984 4 -8.1999999999999995e-01 3.0688402531285073e+00 1.7964766541340285e+00 3.2510043482352180e+00 1 -5 2
7007 2336 4 -8.1999999999999995e-01 2.6523470024248272e+00 7.7428273844317284e+00 4.5312741863967183e+00 0 -1 0
7191 2397 3 4.0999999999999998e-01 4.1801453134327273e+00 3.7676450218771507e+00 5.3045899558114655e+00 1 -2 1
5229 1743 3 4.0999999999999998e-01 7.0841784671057360e+00 1.0068927766868292e+01 4.7029934744963784e+00 -2 -1 -2
4070 1357 4 -8.1999999999999995e-01 7.0307264775713110e+00 7.0968837224290020e+00 5.1581146097035591e+00 1 -1 1
7165 2389 3 4.0999999999999998e-01 7.9361125227939286e+00 8.4175917118975860e+00 1.3845825377511749e+00 1 3 -2
3607 1203 3 4.0999999999999998e-01 2.4897493930880460e-01 3.1825421795326170e+00 6.2320747555292328e+00 3 1 -2
5228 1743 4 -8.1999999999999995e-01 8.0773582510718036e+00 1.0258030098538310e+01 4.5857240788907436e+00 -2 -1 -2
5212 1738 3 4.0999999999999998e-01 9.7108704767772895e+00 7.1497802738374565e+00 1.5824461924544466e+00 0 -4 1
4985 1662 4 -8.1999999999999995e-01 1.5871786592781423e+00 3.9293430301297971e+00 7.0700005995460060e+00 3 0 3
409 137 3 4.0999999999999998e-01 9.4121321781395828e+00 2.7748018555428047e+00 3.6726525410923410e+00 1 -4 0
5700 1900 3 4.0999999999999998e-01 8.0386636970755276e+00 6.9294405243768100e+00 8.8080846738403125e+00 2 1 0
2904 968 3 4.0999999999999998e-01 4.0919890458068542e+00 3.0672291940524912e+00 2.0799335109520878e+00 5 4 1
3518 1173 4 -8.1999999999999995e-01 8.3244134714054741e-01 3.0692553633098267e+00 2.6353967610695777e+00 0 -1 4
4032 1344 3 4.0999999999999998e-01 3.8195374911321114e+00 9.6482508270034462e+00 1.8242595515231821e+00 3 0 1
2903 968 4 -8.1999999999999995e-01 4.0421757396404061e+00 3.9357784130083098e+00 1.5473180258166790e+00 5 4 1
2505 835 3 4.0999999999999998e-01 4.8023459079134767e+00 9.1476374773351985e+00 5.4799056651590234e+00 5 3 3
2547 849 3 4.0999999999999998e-01 9.5679207195112359e-01 1.0087119534393455e+01 2.4961191758100369e+00 -1 1 -2
5164 1722 3 4.0999999999999998e-01 6.1129639747576867e+00 3.8017459731167138e+00 1.6296463289349219e+00 2 4 2
2545 849 3 4.0999999999999998e-01 2.2467996845830185e+00 1.0361241807510279e+01 3.3912221691815541e+00 -1 1 -2
3036 1012 3 4.0999999999999998e-01 8.1119034225744571e+00 2.8253391759514259e+00 1.1233775850770358e+00 -5 1 0
3311 1104 4 -8.1999999999999995e-01 5.3223752818750674e+00 7.9091839571310656e+00 7.9917967932143981e+00 -1 -2 3
5213 1738 4 -8.1999999999999995e-01 8.7513333010559400e+00 7.1193026698828517e+00 1.9238990566457277e+00 0 -4 1
7004 2335 4 -8.1999999999999995e-01 7.8772820408623465e+00 3.8485641233093402e+00 8.1704557883990336e+00 7 1 2
5156 1719 4 -8.1999999999999995e-01 1.2865916639985802e+00 2.0125179330880636e+00 9.2149235752355665e+00 -1 2 3
5954 1985 4 -8.1999999999999995e-01 1.1363105362489041e+00 4.3138159508779722e-01 4.7220818497915689e+00 1 1 -2
446 149 4 -8.1999999999999995e-01 3.5945137065323669e+00 5.5760079973851351e+00 1.0155934633263676e+01 -1 2 -5
57 19 3 4.0999999999999998e-01 1.3628917184366105e+00 3.8377245347814806e+00 1.6118661068060852e+01 -1 -1 0
2740 914 3 4.0999999999999998e-01 3.1658643366185419e+00 9.9373613336525057e+00 2.0363857469782200e+01 1 1 0
1467 489 3 4.0999999999999998e-01 9.0675543425844367e+00 2.0236989740275773e+00 1.1555153800042101e+01 -5 -1 -2
3976 1326 3 4.0999999999999998e-01 2.2255072643414677e+00 8.5088019861522513e-01 1.7593154947304015e+01 1 -1 -2
1561 521 3 4.0999999999999998e-01 4.0965741966310549e+00 3.9229928730434982e+00 1.5764197341043753e+01 -2 3 -3
3327 1109 3 4.0999999999999998e-01 1.0220684088049522e+01 6.0766539102112311e+00 1.7075775845314464e+01 4 3 5
4159 1387 3 4.0999999999999998e-01 2.3188553061958599e+00 8.0242929048545690e+00 1.3040056885117016e+01 3 3 -2
2896 966 3 4.0999999999999998e-01 7.3170753185192634e+00 8.2226332804993554e+00 1.7673659290149946e+01 1 2 -1
2183 728 4 -8.1999999999999995e-01 4.7417245070767500e+00 1.9826159914461352e+00 2.0761608291284308e+01 1 -1 -1
55 19 3 4.0999999999999998e-01 2.4017834035399761e+00 2.5625010686365708e+00 1.6195668279464655e+01 -1 -1 0
6020 2007 4 -8.1999999999999995e-01 1.0344185985442893e+01 7.5349052608657328e+00 1.3294605763281430e+01 -1 3 0
649 217 3 4.0999999999999998e-01 4.9475906850998266e+00 9.9488110669636782e+00 1.3876494887970917e+01 -1 1 2
3826 1276 3 4.0999999999999998e-01 3.9925200615054499e+00 5.9091406188520148e+00 1.4168640808090164e+01 4 0 -1
3326 1109 4 -8.1999999999999995e-01 9.5925637161958281e+00 6.9290437886663181e+00 1.7033378618110508e+01 4 3 5
2257 753 3 4.0999999999999998e-01 7.7540194599856997e+00 7.2613713296628655e+00 1.9306519841027900e+01 0 3 0
5944 1982 3 4.0999999999999998e-01 6.9239238060552095e+00 8.8030218889763603e+00 1.3892170095748092e+01 3 -1 -1
248 83 4 -8.1999999999999995e-01 7.9781626750203545e+00 7.9006006568900080e+00 1.0908425867752404e+01 0 1 -5
4575 1525 3 4.0999999999999998e-01 9.5081037427383686e-01 8.0135731169067128e+00 2.0726195181782060e+01 -1 0 -1
1346 449 4 -8.1999999999999995e-01 4.3542748084620682e+00 1.3180183927767914e+00 1.1283213422378651e+01 1 0 1
6574 2192 3 4.0999999999999998e-01 8.3255524149618054e+00 1.3902185862587810e+00 1.7860740882828175e+01 -3 -3 -2
1822 608 3 4.0999999999999998e-01 8.4244288794108737e+00 4.8685252348188381e+00 1.2342545732485803e+01 4 -2 4
2258 753 4 -8.1999999999999995e-01 8.4562049579928420e+00 7.2061352529652538e+00 2.0031784623042686e+01 0 3 0
7344 2448 3 4.0999999999999998e-01 4.7903490204104395e+00 1.0447802844719561e+01 1.6161240541085544e+01 2 3 1
6005 2002 4 -8.1999999999999995e-01 4.0691678265345681e+00 4.0446384515204699e+00 1.9026354215162186e+01 4 4 -4
4573 1525 3 4.0999999999999998e-01 2.2909515889641958e+00 8.0976953542894279e+00 1.9674147747807009e+01 -1 0 -1
3148 1050 3 4.0999999999999998e-01 1.8345831196644673e+00 2.3039793992201139e+00 1.0872993165306120e+01 -1 -2 1
6004 2002 3 4.0999999999999998e-01 3.3682906472630423e+00 3.5698261403342340e+00 1.8470855147019677e+01 4 4 -4
6576 2192 3 4.0999999999999998e-01 7.7405911106816543e+00 2.0101221420721118e+00 1.6362689986289208e+01 -3 -3 -2
478 160 3 4.0999999999999998e-01 1.4277424436514541e+00 6.6713932116646628e+00 1.8349079830769295e+01 -3 -1 3
447 149 3 4.0999999999999998e-01 3.3326297017752711e+00 4.7508163943721460e+00 1.0643002010474019e+01 -1 2 -5
3952 1318 3 4.0999999999999998e-01 3.5801530253992553e+00 6.9655176489144068e+00 1.6278583789698441e+01 1 1 -1
1465 489 3 4.0999999999999998e-01 1.0189420857249127e+01 9.1011718680472609e-01 1.1916372223920661e+01 -5 -1 -2
5737 1913 3 4.0999999999999998e-01 7.5783398560663828e-01 9.0053700280195041e+00 1.5679163281340950e+01 -1 4 0
4806 1602 3 4.0999999999999998e-01 5.7861729438088050e+00 6.7427043597291929e+00 1.7457699603085800e+01 -2 -2 3
6019 2007 3 4.0999999999999998e-01 1.0035029133366127e+01 6.5980167939304533e+00 1.3024006294819641e+01 -1 3 0
480 160 3 4.0999999999999998e-01 8.3948373820734545e-01 5.2550301756326405e+00 1.7910702675141813e+01 -3 -1 3
3653 1218 4 -8.1999999999999995e-01 6.9144394798664850e+00 1.9338598591432170e+00 1.4959716566833906e+01 2 -1 0
3654 1218 3 4.0999999999999998e-01 6.7606095942417914e+00 9.7437768788337642e-01 1.5348053218435627e+01 2 -1 0
6304 2102 3 4.0999999999999998e-01 4.1176291275488630e+00 5.7970001886479166e+00 1.8566230499932512e+01 1 6 1
2897 966 4 -8.1999999999999995e-01 7.6540698300079777e+00 9.2312995287402781e+00 1.7607403521032008e+01 1 2 -1
5791 1931 3 4.0999999999999998e-01 6.1643005818616892e-01 2.1665814555933371e+00 1.9208276924243329e+01 -1 -1 2
3710 1237 4 -8.1999999999999995e-01 7.0189961482501948e+00 4.5900419263456698e+00 1.3296620530212223e+01 3 0 2
3977 1326 4 -8.1999999999999995e-01 1.4769639790933686e+00 7.5914417598941553e-01 1.8328509763472258e+01 1 -1 -2
247 83 3 4.0999999999999998e-01 8.9433847334626719e+00 7.8640838220892109e+00 1.0610145432774907e+01 0 1 -5
6420 2140 3 4.0999999999999998e-01 6.2480599886745551e+00 9.0981892673510434e-01 1.1885812051620572e+01 2 2 -1
3652 1218 3 4.0999999999999998e-01 6.0779825696021641e+00 2.5103398147578688e+00 1.5041073653199879e+01 2 -1 0
2898 966 3 4.0999999999999998e-01 8.5083317454477339e+00 9.2256688308367210e+00 1.7088060665104532e+01 1 2 -1
7337 2446 4 -8.1999999999999995e-01 3.2833722905213802e+00 9.5588282279471681e-01 1.6313697252419612e+01 0 -1 -2
3711 1237 3 4.0999999999999998e-01 6.0455187060282345e+00 4.8542177731239891e+00 1.3308699538631606e+01 3 0 2
7342 2448 3 4.0999999999999998e-01 5.8551720528869060e+00 9.9173204673106028e+00 1.7133913944122764e+01 2 3 1
1563 521 3 4.0999999999999998e-01 5.1852951410100756e+00 3.3330099217247846e+00 1.6977069548067366e+01 -2 3 -3
5945 1982 4 -8.1999999999999995e-01 7.7378076621848599e+00 8.9787919176416615e+00 1.3339038508168290e+01 3 -1 -1
1466 489 4 -8.1999999999999995e-01 1.0020746953190026e+01 1.8455307347424426e+00 1.1404495022957404e+01 -5 -1 -2
4574 1525 4 -8.1999999999999995e-01 1.3932835425607606e+00 7.5832951969634497e+00 1.9856032612502169e+01 -1 0 -1
2856 952 3 4.0999999999999998e-01 7.9232338467674257e+00 3.5495271411436948e+00 1.8305004897623625e+01 -2 0 -2
3828 1276 3 4.0999999999999998e-01 3.8932957263247352e+00 4.7069762402699507e+00 1.3001562676389034e+01 4 0 -1
3827 1276 4 -8.1999999999999995e-01 4.4173884897589852e+00 5.4610448780446719e+00 1.3340660719929943e+01 4 0 -1
6306 2102 3 4.0999999999999998e-01 3.9201868637406299e+00 7.3435848794375342e+00 1.9090586455690687e+01 1 6 1
4894 1632 3 4.0999999999999998e-01 5.8202250493917207e+00 7.7749630798312817e+00 2.0913600814781134e+01 -1 0 0
1345 449 3 4.0999999999999998e-01 3.5502992141777510e+00 1.7591622149580004e+00 1.1759316231093649e+01 1 0 1
6305 2102 4 -8.1999999999999995e-01 3.9467175095505964e+00 6.7407572963065974e+00 1.8270552157672569e+01 1 6 1
6406 2136 3 4.0999999999999998e-01 7.5800500550821948e+00 1.0016090016420804e+01 1.9178454028113777e+01 -3 2 -1
6114 2038 3 4.0999999999999998e-01 1.9891536427764305e+00 1.0080460153937677e+01 1.3417998413071498e+01 3 -3 4
6575 2192 4 -8.1999999999999995e-01 8.4090795465539312e+00 2.1290241045283009e+00 1.7144023135714445e+01 -3 -3 -2
4161 1387 3 4.0999999999999998e-01 2.6710142062454829e+00 7.8974185099748349e+00 1.4610054064443041e+01 3 3 -2
7343 2448 4 -8.1999999999999995e-01 4.8873400642595115e+00 1.0299472969708516e+01 1.7189330236851990e+01 2 3 1
56 19 4 -8.1999999999999995e-01 2.3243147840925258e+00 3.5855003506369165e+00 1.6332930446556521e+01 -1 -1 0
815 272 4 -8.1999999999999995e-01 1.4958622938056487e+00 7.2100700179690955e+00 1.0884477615566068e+01 3 -2 1
3325 1109 3 4.0999999999999998e-01 8.6753723197006956e+00 6.4685028722440077e+00 1.7067588680390497e+01 4 3 5
479 160 4 -8.1999999999999995e-01 1.1485734928319984e+00 6.1597923292319710e+00 1.7573899079181142e+01 -3 -1 3
1562 521 4 -8.1999999999999995e-01 5.0417062873950638e+00 3.5763249966937294e+00 1.6008278476218504e+01 -2 3 -3
3953 1318 4 -8.1999999999999995e-01 3.2188656346565900e+00 6.3478304145514173e+00 1.5539770400345875e+01 1 1 -1
6418 2140 3 4.0999999999999998e-01 7.0151514139805835e+00 1.2893784410256115e+00 1.3384242707584198e+01 2 2 -1
6006 2002 3 4.0999999999999998e-01 4.3628778256920304e+00 3.3849021956947181e+00 1.9723665122744432e+01 4 4 -4
2741 914 4 -8.1999999999999995e-01 3.6535092748039797e+00 9.1256344713274054e+00 1.9920985712802562e+01 1 1 0
2742 914 3 4.0999999999999998e-01 4.0470687365087663e+00 9.4370324034295727e+00 1.9020036315325036e+01 1 1 0
4160 1387 4 -8.1999999999999995e-01 2.0377682118525668e+00 8.3676147639443759e+00 1.3959532477607373e+01 3 3 -2
1873 625 3 4.0999999999999998e-01 4.7025569814731325e+00 9.7243461429703864e+00 1.1462215741706309e+01 2 1 3
2855 952 4 -8.1999999999999995e-01 7.6308677650647896e+00 4.4134469125087428e+00 1.8777219909990858e+01 -2 0 -2
816 272 3 4.0999999999999998e-01 7.1739193519431987e-01 6.5411536505636940e+00 1.1034278956723542e+01 3 -2 1
650 217 4 -8.1999999999999995e-01 5.5433933064833694e+00 1.0151552397265725e+01 1.4682795228353536e+01 -1 1 2
5739 1913 3 4.0999999999999998e-01 1.3528574782851517e+00 7.7635537557380134e+00 1.6646070436459080e+01 -1 4 0
1823 608 4 -8.1999999999999995e-01 9.3992346877806376e+00 5.2569861428126590e+00 1.2135140136513080e+01 4 -2 4
3674 1225 4 -8.1999999999999995e-01 1.0569312543701573e+01 8.9406576093018320e+00 1.9300068672457225e+01 2 -1 -2
1824 608 3 4.0999999999999998e-01 9.5879494591882146e+00 4.9714814100406803e+00 1.1129408915980596e+01 4 -2 4
4345 1449 3 4.0999999999999998e-01 1.3924326584797673e+00 8.2821431560275316e-01 1.3570386876849415e+01 -1 -4 -1
324 108 3 4.0999999999999998e-01 1.0014886117074081e+01 3.2708251661261718e+00 1.6810617278671028e+01 1 -1 4
4805 1602 4 -8.1999999999999995e-01 6.8595633768298283e+00 6.6684876818532040e+00 1.7594171254968373e+01 -2 -2 3
3709 1237 3 4.0999999999999998e-01 7.2004997995268374e+00 3.8280593757057675e+00 1.3903284407792656e+01 3 0 2
4804 1602 3 4.0999999999999998e-01 7.0336363772908088e+00 5.7293146797289651e+00 1.7970358918536188e+01 -2 -2 3
1129 377 3 4.0999999999999998e-01 8.4133886458158536e+00 7.4205231834464380e-01 2.0574785111742823e+01 -1 1 -1
2259 753 3 4.0999999999999998e-01 9.1001906827741870e+00 6.4405899173186665e+00 1.9872784866137906e+01 0 3 0
5738 1913 4 -8.1999999999999995e-01 1.1153727527534558e+00 8.7574539676407870e+00 1.6622360862058375e+01 -1 4 0
3149 1050 4 -8.1999999999999995e-01 2.1020697842277878e+00 2.7639571421876084e+00 1.1816082158992305e+01 -1 -2 1
6419 2140 4 -8.1999999999999995e-01 7.1117226862657814e+00 8.2585073306100576e-01 1.2510748822270594e+01 2 2 -1
5946 1982 3 4.0999999999999998e-01 8.5643145756269021e+00 8.5311714807871848e+00 1.3857589207829767e+01 3 -1 -1
2182 728 3 4.0999999999999998e-01 5.0523098600093412e+00 1.0420863128830615e+00 2.0462825391797033e+01 1 -1 -1
3978 1326 3 4.0999999999999998e-01 1.8886814707775408e+00 7.5567323431963418e-01 1.9242776630997263e+01 1 -1 -2
3150 1050 3 4.0999999999999998e-01 1.2682589697422242e+00 2.7889269263415772e+00 1.2447826605949293e+01 -1 -2 1
249 83 3 4.0999999999999998e-01 7.9367118667861236e+00 8.4350671489305231e+00 1.1776262020690739e+01 0 1 -5
3954 1318 3 4.0999999999999998e-01 2.7494857976934255e+00 5.6400066137459781e+00 1.6086362022702449e+01 1 1 -1
2854 952 3 4.0999999999999998e-01 7.7079030056904108e+00 4.3708768031226679e+00 1.9828799586311316e+01 -2 0 -2
3673 1225 3 4.0999999999999998e-01 9.6550420097315222e+00 8.4432862154103905e+00 1.9299744024385593e+01 2 -1 -2
4584 1528 3 4.0999999999999998e-01 1.2809388211704060e+00 1.0477285245548556e+01 1.7091258957901090e+01 2 0 1
7336 2446 3 4.0999999999999998e-01 3.1151690520269857e+00 9.8299433003558245e-01 1.5338148942073083e+01 0 -1 -2
5149 1717 3 4.0999999999999998e-01 6.1461977479006471e+00 7.8889209624445211e+00 1.1129209080712430e+01 6 0 3
6021 2007 3 4.0999999999999998e-01 1.0442595877321825e+01 7.9953884919678009e+00 1.2361509760878080e+01 -1 3 0
1665 555 3 4.0999999999999998e-01 1.0503759558174155e+01 1.1763973365413205e+00 1.9265521352572943e+01 -1 -4 -1
5150 1717 4 -8.1999999999999995e-01 5.1803998769117880e+00 7.9660618682453519e+00 1.0829489235230286e+01 6 0 3
679 227 3 4.0999999999999998e-01 3.1453037927457479e+00 5.5923401967858943e+00 2.0542741762382853e+01 2 2 1
5620 1874 3 4.0999999999999998e-01 3.0400539086069642e+00 1.2680702909901655e+00 2.0952321347801046e+01 -4 3 -1
6407 2136 4 -8.1999999999999995e-01 7.1152034722128219e+00 1.0432924572556937e+01 1.9995278331796872e+01 -3 2 -1
5151 1717 3 4.0999999999999998e-01 4.8040795400804290e+00 7.0592633140507397e+00 1.0879021077051696e+01 6 0 3
1347 449 3 4.0999999999999998e-01 3.9229544874053297e+00 6.6671503522790654e-01 1.0605498888215861e+01 1 0 1
6893 2298 4 -8.1999999999999995e-01 6.2618620197429911e+00 4.7956320996384285e+00 2.4440200822758758e+01 -1 2 2
1250 417 4 -8.1999999999999995e-01 5.0053018723779070e+00 5.0733683382481471e+00 2.8839877818424007e+01 -4 3 -6
1942 648 3 4.0999999999999998e-01 5.0826478258456005e+00 9.3919818354976545e+00 2.3034234150063163e+01 2 -1 2
681 227 3 4.0999999999999998e-01 4.1706851855994502e+00 6.3150307340615628e+00 2.1617884846475540e+01 2 2 1
1735 579 3 4.0999999999999998e-01 3.4141870225892035e+00 1.0290650991108182e+01 2.6103359221830384e+01 2 0 -2
6866 2289 4 -8.1999999999999995e-01 3.2229447480977749e+00 3.2358983539731594e+00 2.8070784321571345e+01 -3 -2 5
4151 1384 4 -8.1999999999999995e-01 6.7352196857628570e+00 7.5895186563811103e+00 2.4454959425914616e+01 1 -1 3
1311 437 3 4.0999999999999998e-01 2.8916335965933944e+00 7.9552842091094380e+00 2.3922890010017358e+01 2 4 0
6865 2289 3 4.0999999999999998e-01 3.4966551349838819e+00 3.8156173338802386e+00 2.7258913551518571e+01 -3 -2 5
3575 1192 4 -8.1999999999999995e-01 6.5034297411464292e+00 1.8651677166578216e+00 2.8678407612331629e+01 1 -5 0
4022 1341 4 -8.1999999999999995e-01 8.3225069885176872e-01 2.0705276847288645e+00 2.6936678986768513e+01 -3 -1 -2
2593 865 3 4.0999999999999998e-01 1.0019835353488316e+01 4.8536975994481608e+00 2.1474500230511236e+01 3 0 0
6894 2298 3 4.0999999999999998e-01 6.4575450709669511e+00 5.7872654010890683e+00 2.4131743246243964e+01 -1 2 2
1235 412 4 -8.1999999999999995e-01 5.7723377079044100e+00 7.5618636911329773e+00 2.7258808651973180e+01 0 1 0
7287 2429 3 4.0999999999999998e-01 6.3731937552728579e-01 1.0465178488859396e+01 2.7102568118288918e+01 0 2 2
6812 2271 4 -8.1999999999999995e-01 9.9350010594873854e+00 7.8438969717090128e+00 3.0296477671498867e+01 1 2 5
2010 670 3 4.0999999999999998e-01 2.4580404155038793e+00 5.0832668254702007e+00 2.5967070006968324e+01 1 0 -2
1927 643 3 4.0999999999999998e-01 4.3018242657391170e-01 4.0883339242456618e+00 2.2257434929437562e+01 2 1 -2
5823 1941 3 4.0999999999999998e-01 5.1437852580466945e+00 2.0546394357769562e+00 2.9768821899147657e+01 -2 0 5
3930 1310 3 4.0999999999999998e-01 8.3210376733173010e+00 7.6756060245275854e+00 2.9858893417840999e+01 1 -5 0
5643 1881 3 4.0999999999999998e-01 3.0657304050916429e-01 4.8221934282730041e+00 2.9319133750332625e+01 -4 3 0
6892 2298 3 4.0999999999999998e-01 6.9351185551178043e+00 4.6212892876032132e+00 2.5169116435405897e+01 -1 2 2
2375 792 4 -8.1999999999999995e-01 8.4503839656590305e+00 4.3623327934189051e+00 2.5836972510853155e+01 4 -3 -1
6034 2012 3 4.0999999999999998e-01 9.8063752953787926e+00 1.2664343072030539e+00 2.5525214398545749e+01 0 1 -1
4690 1564 3 4.0999999999999998e-01 6.5929982494816741e+00 1.0538586154316086e+01 2.1448085982736327e+01 -2 1 -1
6064 2022 3 4.0999999999999998e-01 2.5043245560764817e+00 8.4413035139299346e+00 2.7466485523543785e+01 -1 -2 0
2009 670 4 -8.1999999999999995e-01 1.7903416343186669e+00 5.8145019048443949e+00 2.6353469128421047e+01 1 0 -2
6811 2271 3 4.0999999999999998e-01 1.0449657069785596e+01 8.2003654919564504e+00 2.9487899315877474e+01 1 2 5
2594 865 4 -8.1999999999999995e-01 9.3227585054839786e+00 4.1733812991096748e+00 2.1311961592349149e+01 3 0 0
4688 1563 4 -8.1999999999999995e-01 9.3042541607044953e+00 5.0916163695393442e+00 3.0638815956952953e+01 6 3 0
5822 1941 4 -8.1999999999999995e-01 4.2931276191160164e+00 1.9606019367782039e+00 3.0348161134197639e+01 -2 0 5
3929 1310 4 -8.1999999999999995e-01 7.3369985049873270e+00 7.7505926114138219e+00 2.9913026014757278e+01 1 -5 0
6065 2022 4 -8.1999999999999995e-01 3.3527797370340715e+00 8.9824796592843299e+00 2.7477332154362017e+01 -1 -2 0
1309 437 3 4.0999999999999998e-01 1.4041063564506191e+00 7.6819602335577493e+00 2.3236869565365868e+01 2 4 0
4150 1384 3 4.0999999999999998e-01 5.8677199450270141e+00 7.7015642817614482e+00 2.3934645071049122e+01 1 -1 3
6728 2243 4 -8.1999999999999995e-01 5.6518001053555100e-01 1.0377991849272570e+00 2.3202322155004236e+01 1 -1 0
680 227 4 -8.1999999999999995e-01 3.2664584375522803e+00 5.8515459914617960e+00 2.1489363557396608e+01 2 2 1
1234 412 3 4.0999999999999998e-01 5.7218117295165740e+00 6.5700664961026733e+00 2.7492900092474091e+01 0 1 0
4895 1632 4 -8.1999999999999995e-01 5.6838395948849980e+00 6.9400149431907812e+00 2.1505618308888273e+01 -1 0 0
5621 1874 4 -8.1999999999999995e-01 2.2984282973200099e+00 5.9120576554584159e-01 2.1121910705996171e+01 -4 3 -1
3651 1217 3 4.0999999999999998e-01 6.1199790776462279e+00 1.0219996759829664e+01 2.9619884682033568e+01 0 1 4
6896 2299 4 -8.1999999999999995e-01 2.1476857198339259e+00 8.5426034162148987e+00 3.0995448691946269e+01 3 -4 2
1943 648 4 -8.1999999999999995e-01 4.4393966874119037e+00 9.0847725700543318e+00 2.3744981162453239e+01 2 -1 2
2008 670 3 4.0999999999999998e-01 1.9222687867405865e+00 6.4341338718412580e+00 2.5545503190328603e+01 1 0 -2
216 72 3 4.0999999999999998e-01 8.3121248354100778e+00 8.1080196600158612e+00 2.4932779869411664e+01 3 0 2
1310 437 4 -8.1999999999999995e-01 1.9543428696990697e+00 7.5839248362325158e+00 2.4119804873884441e+01 2 4 0
6722 2241 4 -8.1999999999999995e-01 1.9544710126874121e+00 4.0807366389315147e+00 2.2909029369993718e+01 0 0 1
6729 2243 3 4.0999999999999998e-01 1.1097907409783050e+00 6.4679377890094003e-01 2.2410172237045384e+01 1 -1 0
5821 1941 3 4.0999999999999998e-01 3.5659509940235044e+00 2.2885718121114680e+00 2.9752404782537699e+01 -2 0 5
3649 1217 3 4.0999999999999998e-01 6.6958959631594679e+00 9.1335627367585523e+00 3.0593077850870255e+01 0 1 4
1249 417 3 4.0999999999999998e-01 4.5991322782945847e+00 5.5537683826572666e+00 2.9621878526608846e+01 -4 3 -6
6723 2241 3 4.0999999999999998e-01 2.3142414246626455e+00 4.9544823023513160e+00 2.2431040934759849e+01 0 0 1
5641 1881 3 4.0999999999999998e-01 1.8804255180424190e+00 4.9992648527331980e+00 3.0121337703847107e+01 -4 3 0