LAMMPS data file via write_data, version 5 Jun 2019, timestep = 13000000

7349 atoms
5 atom types
4899 bonds
2 bond types
2451 angles
2 angle types
1 impropers
1 improper types

1.5519297081455363e-01 4.1845807029189409e+01 xlo xhi
1.5469297081455124e-01 4.1845307029189406e+01 ylo yhi
1.5469297081455124e-01 4.1845307029189406e+01 zlo zhi

#Masses
#
#1 12.01
#2 40.08
#3 1.01
#4 16
#5 16
#
#Bond Coeffs # harmonic
#
#1 20.4246 1.3042
#2 22.965 1.012

Atoms # full

6194 2065 4 -8.1999999999999995e-01 4.4148197930240656e+00 1.0563242661681551e+01 8.9807656213160669e+00 1 0 1
1181 394 4 -8.1999999999999995e-01 3.9300859570763951e+00 1.1362104147619374e+00 2.4055134401622205e+00 -4 -2 1
3753 1251 3 4.0999999999999998e-01 9.8517195978619352e+00 6.7763085334274784e+00 1.5095172115302822e+00 1 0 1
3231 1077 3 4.0999999999999998e-01 3.5616559485427537e+00 7.5360150066539697e+00 8.8982672471884854e+00 0 -3 0
5074 1692 3 4.0999999999999998e-01 1.1229013593725004e+00 8.4806260784833523e+00 4.8819683011798229e+00 2 1 1
6093 2031 3 4.0999999999999998e-01 3.5957606269116935e+00 4.5013352055653879e+00 1.6105790399802535e+00 3 1 2
6667 2223 3 4.0999999999999998e-01 5.4298053327486704e+00 9.7313489950987619e-01 3.1905654854651662e+00 2 1 -3
1357 453 3 4.0999999999999998e-01 2.4320228609073125e+00 3.7942313778673173e+00 8.1690696519830421e+00 2 0 1
6288 2096 3 4.0999999999999998e-01 6.6210397596464192e+00 7.3539061013835196e+00 2.5414866189216121e+00 0 -1 3
1180 394 3 4.0999999999999998e-01 3.9646310232148818e+00 1.8389751706616251e+00 1.6993781854341361e+00 -4 -2 1
2664 888 3 4.0999999999999998e-01 7.8594393336454678e+00 1.3856385324311637e+00 3.4300036248384362e+00 -2 1 2
3865 1289 3 4.0999999999999998e-01 6.3311503437810268e+00 1.5459927362458119e+00 5.6966329986732260e+00 1 -2 -1
5693 1898 4 -8.1999999999999995e-01 2.3319683029420302e-01 9.6063580801354611e+00 1.5240227497479732e+00 0 2 1
6416 2139 4 -8.1999999999999995e-01 5.0744721220167737e+00 9.2490386209232422e+00 6.6244528255835027e+00 2 -3 2
652 218 3 4.0999999999999998e-01 6.1009651548705639e+00 4.6391895827394185e+00 8.1676957524359608e+00 -2 -2 -2
7245 2415 3 4.0999999999999998e-01 1.4968214306865435e+00 2.2226045509159604e+00 1.3874829230681498e+00 3 0 -3
2953 985 3 4.0999999999999998e-01 8.9093162331197924e+00 2.7293578872793942e+00 5.7494978182709122e-01 -2 5 0
6831 2277 3 4.0999999999999998e-01 7.5828030880089452e+00 9.4089561809619049e+00 9.0690530015626365e+00 5 1 1
4051 1351 3 4.0999999999999998e-01 5.0355012016254426e+00 8.0716234903896229e+00 3.9629773340061285e+00 0 -1 5
5694 1898 3 4.0999999999999998e-01 1.2307814053832336e+00 9.4932578756242272e+00 1.7719784720647849e+00 0 2 1
3262 1088 3 4.0999999999999998e-01 5.3105982247509029e+00 7.4349674642029884e+00 9.9074292005265132e+00 0 1 -5
4532 1511 4 -8.1999999999999995e-01 4.0759149617339361e+00 7.0884391429207181e+00 4.9280960035116719e+00 -3 2 0
6936 2312 3 4.0999999999999998e-01 2.9692994545323348e+00 7.0366207128137361e+00 1.7041140604532810e+00 5 1 1
3314 1105 4 -8.1999999999999995e-01 1.8103350427622673e+00 1.6691798344975155e+00 3.9918995850082757e+00 2 1 3
3263 1088 4 -8.1999999999999995e-01 5.2546650342338692e+00 7.5147052523533748e+00 8.8592406993083745e+00 0 1 -5
6940 2314 3 4.0999999999999998e-01 8.5281152143469487e+00 7.3460291560767665e-01 1.0229758565556486e+01 -3 -1 1
6899 2300 4 -8.1999999999999995e-01 4.2837621525055205e+00 1.0481611026873283e+01 2.3596504666994274e+00 0 -3 1
4621 1541 3 4.0999999999999998e-01 6.4804942233437779e-01 6.2547234129806579e+00 6.6443688327809980e+00 3 1 -2
6287 2096 4 -8.1999999999999995e-01 6.7694676661378868e+00 6.4309143800338617e+00 2.0264481338842546e+00 0 -1 3
2954 985 4 -8.1999999999999995e-01 7.8901484506099946e+00 2.7675313002578177e+00 5.5586581752524444e-01 -2 5 0
5825 1942 4 -8.1999999999999995e-01 1.0556121142347706e+01 9.5514775604814890e+00 6.3322845027694701e+00 -3 0 1
7039 2347 3 4.0999999999999998e-01 7.6812115440762883e+00 8.4876374780153796e+00 6.3951109473728058e+00 0 3 2
4622 1541 4 -8.1999999999999995e-01 6.0433028595992977e-01 6.1684662840133626e+00 7.6396351112246048e+00 3 1 -2
2362 788 3 4.0999999999999998e-01 6.8863865226646483e+00 2.5351290372311475e+00 9.6996552344308160e+00 1 -3 0
4978 1660 3 4.0999999999999998e-01 2.5095943024208238e+00 1.6619356510050931e-01 4.2187565320195697e+00 4 -2 2
4531 1511 3 4.0999999999999998e-01 4.1934736376396611e+00 7.8201602310506253e+00 5.6603736079396709e+00 -3 2 0
653 218 4 -8.1999999999999995e-01 5.6870117361509340e+00 5.1841951298565991e+00 7.3776482580395140e+00 -2 -2 -2
5076 1692 3 4.0999999999999998e-01 2.3160121138370249e+00 7.4489275601610618e+00 4.9222328681412479e+00 2 1 1
4052 1351 4 -8.1999999999999995e-01 5.8672036255714728e+00 8.4257017163444150e+00 3.4318543301316509e+00 0 -1 5
6453 2151 3 4.0999999999999998e-01 3.1974659462990269e+00 4.0523232036568118e+00 5.5324736387173097e+00 -2 -1 -1
5605 1869 3 4.0999999999999998e-01 9.0582193191893161e+00 6.9562688881744652e+00 6.2375388492154960e+00 0 1 -1
6417 2139 3 4.0999999999999998e-01 4.3495060075873022e+00 9.8979360935345255e+00 6.1848113922048000e+00 2 -3 2
6934 2312 3 4.0999999999999998e-01 3.0293836098228715e+00 7.8530377733755898e+00 3.6562311865464708e-01 5 1 1
5826 1942 3 4.0999999999999998e-01 9.6306538801859123e+00 9.1370643975008523e+00 6.0567313253369175e+00 -3 0 1
2987 996 4 -8.1999999999999995e-01 8.3341784916680073e+00 3.9349766493470990e+00 3.5327664160434735e+00 -1 1 1
3866 1289 4 -8.1999999999999995e-01 6.6014613079843310e+00 1.9336456255174856e+00 6.6320208832637695e+00 1 -2 -1
1778 593 4 -8.1999999999999995e-01 2.4210700429239953e+00 4.5201946611757986e+00 4.1496808927317881e+00 1 1 5
2986 996 3 4.0999999999999998e-01 8.7128807163558459e+00 4.7888485078645093e+00 3.0356002923438092e+00 -1 1 1
3264 1088 3 4.0999999999999998e-01 6.1879408209092945e+00 8.0020183947707633e+00 8.7005303556091764e+00 0 1 -5
2955 985 3 4.0999999999999998e-01 7.5357867010842181e+00 1.7227229710924881e+00 6.1692357475281445e-01 -2 5 0
6935 2312 4 -8.1999999999999995e-01 2.9369744583231268e+00 7.9951204587216447e+00 1.3536180504869295e+00 5 1 1
6092 2031 4 -8.1999999999999995e-01 3.0862999817738990e+00 5.3922145667461390e+00 1.3214551540002424e+00 3 1 2
2364 788 3 4.0999999999999998e-01 5.9123424751859641e+00 2.4823498497336987e+00 8.3342394342222583e+00 1 -3 0
3807 1269 3 4.0999999999999998e-01 2.8776222015132524e+00 7.3000672447165416e-01 7.6827738844682161e+00 -1 -1 1
3805 1269 3 4.0999999999999998e-01 2.0721609842859858e+00 1.7518421367915606e+00 6.5335395609376965e+00 -1 -1 1
5611 1871 3 4.0999999999999998e-01 9.4060750928310455e+00 4.2934109800947891e+00 6.5037635967932763e+00 1 0 5
7040 2347 4 -8.1999999999999995e-01 8.2684158098289782e+00 8.2109107262178309e+00 5.5886228643052442e+00 0 3 2
1359 453 3 4.0999999999999998e-01 2.7583503728439158e+00 4.4223610477010284e+00 9.6310035695113356e+00 2 0 1
3752 1251 4 -8.1999999999999995e-01 9.3078798778671032e+00 5.8910834020468252e+00 1.5582489906631487e+00 1 0 1
2363 788 4 -8.1999999999999995e-01 6.0994172721212241e+00 2.9808318072284306e+00 9.1807122344442647e+00 1 -3 0
654 218 3 4.0999999999999998e-01 5.3978414772093322e+00 6.1046073262142757e+00 7.8069525234719714e+00 -2 -2 -2
3751 1251 3 4.0999999999999998e-01 8.2833728631659582e+00 6.0692953814926094e+00 1.4114910740074540e+00 1 0 1
3138 1046 3 4.0999999999999998e-01 6.5950732090998256e+00 6.8411592979088889e+00 3.2834711729129640e-01 -2 1 -1
6900 2300 3 4.0999999999999998e-01 3.8753479818391368e+00 9.7055280938360138e+00 1.8293510780413529e+00 0 -3 1
4533 1511 3 4.0999999999999998e-01 4.9032659502088709e+00 6.4743585232089336e+00 5.0336049733714008e+00 -3 2 0
6091 2031 3 4.0999999999999998e-01 2.2372906393443714e+00 4.9556600406953804e+00 9.8354912166057840e-01 3 1 2
78 26 3 4.0999999999999998e-01 5.1834918958134035e-01 6.3372408717669950e+00 4.2648214458936984e+00 -1 3 -2
5278 1760 3 4.0999999999999998e-01 6.8888220260018738e+00 4.4958914119434867e+00 4.3005799497107828e+00 0 -2 1
5279 1760 4 -8.1999999999999995e-01 6.1643991425323579e+00 5.0487225164615559e+00 4.6895399691271322e+00 0 -2 1
7289 2430 4 -8.1999999999999995e-01 5.0597118393036613e+00 4.9889152042432311e-01 1.0402189007378782e+01 -1 2 -1
6829 2277 3 4.0999999999999998e-01 8.4809100658262384e+00 8.1014657405760548e+00 8.8427357735364414e+00 5 1 1
7244 2415 4 -8.1999999999999995e-01 1.6521482804704479e+00 2.8473105663870282e+00 6.1428208121780081e-01 3 0 -3
6451 2151 3 4.0999999999999998e-01 4.5028250196574380e+00 3.7992077257221371e+00 6.5260871985790398e+00 -2 -1 -1
3230 1077 4 -8.1999999999999995e-01 2.5812892901252913e+00 7.7810070338453645e+00 9.1401799300560871e+00 0 -3 0
3403 1135 3 4.0999999999999998e-01 4.6546626945222283e+00 3.4329772136955028e+00 1.0332985231205232e+01 0 1 2
5612 1871 4 -8.1999999999999995e-01 8.6216837453790536e+00 3.6616551441547713e+00 6.2511917203688636e+00 1 0 5
4623 1541 3 4.0999999999999998e-01 1.1005706282487902e+00 5.3280718224618848e+00 8.0219507670274979e+00 3 1 -2
7288 2430 3 4.0999999999999998e-01 6.0787097008567796e+00 7.9822860391590689e-01 1.0515509016058864e+01 -1 2 -1
7243 2415 3 4.0999999999999998e-01 1.0153661204894924e+00 3.6838258424409069e+00 6.2893389648136744e-01 3 0 -3
2663 888 4 -8.1999999999999995e-01 8.7687956413949593e+00 1.2497276828638546e+00 3.0480408028494663e+00 -2 1 2
4217 1406 4 -8.1999999999999995e-01 5.1327711129867613e+00 3.2668001016239754e+00 8.9714838897536486e-01 3 1 6
6452 2151 4 -8.1999999999999995e-01 3.5758992138462458e+00 3.4834263261237139e+00 6.2686704133349362e+00 -2 -1 -1
5280 1760 3 4.0999999999999998e-01 6.2345918494686945e+00 5.0723430567302374e+00 5.7498613667816860e+00 0 -2 1
5607 1869 3 4.0999999999999998e-01 9.6113923073645982e+00 6.2057090843609428e+00 7.7460057768392545e+00 0 1 -1
6415 2139 3 4.0999999999999998e-01 5.8828794852914790e+00 9.7707900972839035e+00 6.9301601286059107e+00 2 -3 2
6663 2221 3 4.0999999999999998e-01 9.4187934586971913e+00 2.5073920810703582e-01 8.9096650615517134e+00 -2 1 -2
5606 1869 4 -8.1999999999999995e-01 9.7316045301750513e+00 6.3275472229876186e+00 6.7307380889445083e+00 0 1 -1
3806 1269 4 -8.1999999999999995e-01 2.0118173752551916e+00 1.3391842534310612e+00 7.4243860086304974e+00 -1 -1 1
1182 394 3 4.0999999999999998e-01 3.2854188758108744e+00 1.4294786516603379e+00 3.1377552923174461e+00 -4 -2 1
1358 453 4 -8.1999999999999995e-01 1.9753964799620807e+00 4.3624366002772090e+00 8.9323164656620566e+00 2 0 1
6668 2223 4 -8.1999999999999995e-01 6.0586370284222681e+00 1.0255099550432887e+00 4.0636849839454117e+00 2 1 -3
7041 2347 3 4.0999999999999998e-01 7.6973158593238811e+00 8.5055587109407238e+00 4.8013004668576000e+00 0 3 2
1777 593 3 4.0999999999999998e-01 3.0265583861728071e+00 5.2440153432735572e+00 3.6500453567888207e+00 1 1 5
3867 1289 3 4.0999999999999998e-01 7.2618711127579294e+00 2.8353683193682704e+00 6.5813763019643243e+00 1 -2 -1
6830 2277 4 -8.1999999999999995e-01 7.6516107658094263e+00 8.6018157707208456e+00 8.4391026407095104e+00 5 1 1
5613 1871 3 4.0999999999999998e-01 8.5465962079865871e+00 3.7701273535994591e+00 5.1954874058932567e+00 1 0 5
4053 1351 3 4.0999999999999998e-01 5.4699192191772070e+00 9.3121923111249565e+00 3.1370502070036030e+00 0 -1 5
2988 996 3 4.0999999999999998e-01 8.4964959456660303e+00 3.0688579409408780e+00 3.0435084460620083e+00 -1 1 1
6195 2065 3 4.0999999999999998e-01 4.0359029188951387e+00 1.0550638939704127e+01 9.8865401933528183e+00 1 0 1
2622 874 3 4.0999999999999998e-01 8.6653751093930236e+00 5.4866656464832912e+00 9.8738915705735142e+00 -1 -1 3
2965 989 3 4.0999999999999998e-01 7.3480264489188798e+00 6.1868089974164497e-01 7.3609668595621427e+00 -2 -2 -1
3315 1105 3 4.0999999999999998e-01 8.3638263478180364e-01 1.4549828791358803e+00 4.3335208865115273e+00 2 1 3
6193 2065 3 4.0999999999999998e-01 4.5496721396105446e+00 9.6947698467571950e+00 8.3964181697951474e+00 1 0 1
3426 1142 3 4.0999999999999998e-01 7.6990587884269368e-01 9.6686515710227088e+00 6.1349252176747688e+00 0 4 -1
6286 2096 3 4.0999999999999998e-01 6.3151863708217668e+00 5.6143341487648160e+00 2.3725374250551026e+00 0 -1 3
1430 477 4 -8.1999999999999995e-01 2.1917074987780424e-01 2.1906257517217802e+00 9.4502249141728072e+00 4 -2 -1
5075 1692 4 -8.1999999999999995e-01 1.3005936611460798e+00 7.5034329566070213e+00 4.9996451594165654e+00 2 1 1
2621 874 4 -8.1999999999999995e-01 9.6089208788691209e+00 5.7246433974306150e+00 9.4747623510266052e+00 -1 -1 3
1779 593 3 4.0999999999999998e-01 1.4517694240209813e+00 4.8514964378224530e+00 4.0301669630312933e+00 1 1 5
3425 1142 4 -8.1999999999999995e-01 1.1547652831843089e+00 1.0128831346259904e+01 5.2370931887285028e+00 0 4 -1
3313 1105 3 4.0999999999999998e-01 2.1181071748475926e+00 2.6695227108079216e+00 4.0494090469543753e+00 2 1 3
3229 1077 3 4.0999999999999998e-01 2.0110135343954627e+00 7.2603697901310538e+00 8.4299943166999718e+00 0 -3 0
4218 1406 3 4.0999999999999998e-01 6.1146800036379858e+00 3.0665217848438076e+00 1.0285836298585529e+00 3 1 6
4237 1413 3 4.0999999999999998e-01 1.7071359834275976e+00 9.1144234991745048e+00 9.8004374119949951e+00 1 1 0
2662 888 3 4.0999999999999998e-01 9.1222585930983833e+00 3.2938648841078644e-01 3.2470584312181621e+00 -2 1 2
1851 617 3 4.0999999999999998e-01 1.0260272676333040e+01 4.1047846464500441e+00 9.6156096816213434e+00 2 -1 2
6753 2251 3 4.0999999999999998e-01 9.9778688606943344e+00 2.4554954014993378e+00 6.0270088174291008e+00 0 1 4
920 307 4 -8.1999999999999995e-01 1.0516940986671932e+01 2.8431202819307280e+00 2.2815700587740645e-01 1 -1 3
2620 874 3 4.0999999999999998e-01 1.0043930390808610e+01 6.4424069299634414e+00 9.9969093698568514e+00 -1 -1 3
4238 1413 4 -8.1999999999999995e-01 1.0158103894312265e+00 9.8179788165101716e+00 1.0088644309170636e+01 1 1 0
1431 477 3 4.0999999999999998e-01 5.8408171047284230e-01 3.1428884214292179e+00 9.4896198037599273e+00 4 -2 -1
1429 477 3 4.0999999999999998e-01 7.7581450059078794e-01 1.6913594727457519e+00 8.7639110870503192e+00 4 -2 -1
2964 988 3 4.0999999999999998e-01 3.9027618027394284e-01 9.5467855125478867e+00 8.4066023069549143e+00 -1 -2 0
6669 2223 3 4.0999999999999998e-01 5.8525046967408070e+00 1.7315824491274157e-01 4.5803831280005580e+00 2 1 -3
1353 451 3 4.0999999999999998e-01 4.6382405063514032e+00 1.5629941998562202e-01 8.4746557147850421e+00 2 -2 1
2219 740 4 -8.1999999999999995e-01 7.1608568162775557e+00 5.7725320783887080e+00 1.0696537174991418e+01 -3 -3 2
803 268 4 -8.1999999999999995e-01 5.2650004126506333e+00 1.9659929744641393e+00 1.5229084853641272e+01 -1 -3 -2
2218 740 3 4.0999999999999998e-01 6.7061240066711036e+00 6.6643663039916428e+00 1.1000987159480841e+01 -3 -3 2
2480 827 4 -8.1999999999999995e-01 4.6215234865271215e+00 1.0213681824751424e+01 1.1938404773692746e+01 5 1 -2
4794 1598 3 4.0999999999999998e-01 2.3828206218078920e+00 6.8031649551564506e+00 1.8125532519039133e+01 1 0 1
2292 764 3 4.0999999999999998e-01 8.0723345653859795e+00 3.8256650496546425e+00 1.9506612612116204e+01 0 -2 4
3273 1091 3 4.0999999999999998e-01 1.7937629457630633e+00 4.9640749940971629e+00 1.5103588404651571e+01 2 3 0
6515 2172 4 -8.1999999999999995e-01 4.3237787999899977e+00 5.4231547047395336e+00 1.6555932918229956e+01 1 0 1
2463 821 3 4.0999999999999998e-01 4.9812455805532609e+00 9.8670302761395163e+00 1.8674952268309195e+01 4 -2 0
3029 1010 4 -8.1999999999999995e-01 2.8864035708724494e+00 9.0262586869189434e+00 1.4045130941995469e+01 5 -1 0
5660 1887 4 -8.1999999999999995e-01 5.9707679167983301e+00 7.9503335294606918e+00 1.1391431080691586e+01 2 2 1
2542 848 3 4.0999999999999998e-01 2.9746556834471066e-01 6.1262684529857925e+00 2.0882934707042537e+01 1 1 0
2461 821 3 4.0999999999999998e-01 6.1557724026162921e+00 8.7592683825304807e+00 1.8266091556456381e+01 4 -2 0
6514 2172 3 4.0999999999999998e-01 3.9876458906617844e+00 4.5396803495664528e+00 1.6237174744283841e+01 1 0 1
2291 764 4 -8.1999999999999995e-01 7.8523142068493152e+00 2.8563336562242880e+00 1.9280337206608237e+01 0 -2 4
3028 1010 3 4.0999999999999998e-01 2.6625897147315798e+00 8.4014251267317483e+00 1.3235041372476873e+01 5 -1 0
6140 2047 4 -8.1999999999999995e-01 7.9480757029800690e+00 7.1613059691961061e+00 1.7381346688136208e+01 4 -1 1
5661 1887 3 4.0999999999999998e-01 6.6739630742823151e+00 7.9808236876969278e+00 1.2163575187024346e+01 2 2 1
1737 579 3 4.0999999999999998e-01 9.5117509752683969e+00 5.8244452073658568e+00 2.0366483105710760e+01 0 0 -2
3272 1091 4 -8.1999999999999995e-01 1.3397026410531034e+00 5.6838662480956472e+00 1.4537940838817738e+01 2 3 0
2479 827 3 4.0999999999999998e-01 4.0881359417135146e+00 1.0083493992016189e+01 1.2804481327836159e+01 5 1 -2
1298 433 4 -8.1999999999999995e-01 4.3734374936004139e+00 1.0522657476423912e+01 2.0004869899158969e+01 2 2 0
1257 419 3 4.0999999999999998e-01 6.2369447516377612e+00 2.9657833065792301e+00 1.8374855684944986e+01 -1 1 -1
5751 1917 3 4.0999999999999998e-01 1.7197670722848102e-01 8.4394813346314521e+00 1.9845816370082328e+01 1 2 2
4792 1598 3 4.0999999999999998e-01 3.4967521633170771e+00 5.5706417392909611e+00 1.7980846775981860e+01 1 0 1
6139 2047 3 4.0999999999999998e-01 7.7106751031462117e+00 6.1628930539082489e+00 1.7187609298341979e+01 4 -1 1
6944 2315 4 -8.1999999999999995e-01 8.2047722055402268e+00 4.5365925471797537e+00 1.2924539801140302e+01 -1 -2 0
1856 619 4 -8.1999999999999995e-01 6.5985066519181839e+00 7.5566852615751392e+00 1.9582960879039728e+01 4 3 0
306 102 3 4.0999999999999998e-01 1.7863688130359829e+00 1.0832182595607112e+00 1.2705983653680558e+01 -1 3 1
393 131 3 4.0999999999999998e-01 5.4780782389863534e+00 5.2694966471691307e-01 1.7459422846100669e+01 0 -1 -1
1997 666 4 -8.1999999999999995e-01 6.0477411350801633e+00 6.6725077232706607e+00 1.4829904421422842e+01 0 -1 -3
4308 1436 3 4.0999999999999998e-01 1.7205100262961979e+00 4.2728639225939480e+00 1.7943933357388136e+01 -1 1 -2
264 88 3 4.0999999999999998e-01 2.7065816639622797e+00 7.9344235468408346e+00 1.6551197229132487e+01 -3 0 -1
4883 1628 4 -8.1999999999999995e-01 4.2020822446870865e+00 3.3474681276547025e+00 2.0815615685972457e+01 1 -3 -4
6557 2186 4 -8.1999999999999995e-01 8.8263690353757909e+00 5.5284087904266732e-01 1.8261012427911755e+01 0 0 0
7092 2364 3 4.0999999999999998e-01 8.2611152624669497e+00 3.5426176680561863e+00 1.6495323891171953e+01 0 -2 1
7138 2380 3 4.0999999999999998e-01 9.2667019030195981e+00 5.7310802508223579e+00 1.5593783333995788e+01 3 0 0
5636 1879 4 -8.1999999999999995e-01 3.0684670831176741e-01 1.7532675581226040e+00 1.5781841204289989e+01 -3 3 2
5311 1771 3 4.0999999999999998e-01 2.3862883084924373e+00 2.9190063054720090e+00 1.4284977407807402e+01 0 3 1
6550 2184 3 4.0999999999999998e-01 5.2642355843335520e-01 7.4711819775868555e+00 1.6531102829666075e+01 2 -2 1
5502 1834 3 4.0999999999999998e-01 8.7334526669433963e+00 8.0155276564085849e+00 1.2057930784552859e+01 -1 0 1
4920 1640 3 4.0999999999999998e-01 1.0105932410869235e+01 7.7325853738657884e+00 1.7606674684904743e+01 -2 1 1
4470 1490 3 4.0999999999999998e-01 7.9109507407887891e+00 1.1495741717739569e+00 1.6487806837688680e+01 0 0 3
3271 1091 3 4.0999999999999998e-01 6.5362736561458645e-01 6.0626151995543678e+00 1.5156937578029757e+01 2 3 0
6945 2315 3 4.0999999999999998e-01 8.6762826504065700e+00 5.1064432966580622e+00 1.3658383644573401e+01 -1 -2 0
3459 1153 3 4.0999999999999998e-01 2.5361518440477573e+00 1.6340637020084636e+00 1.9043196058523179e+01 -3 0 1
6785 2262 4 -8.1999999999999995e-01 1.0036765813182283e+01 7.5454430266608528e+00 2.0658983582707130e+01 -3 3 2
2522 841 4 -8.1999999999999995e-01 2.4447724082084856e+00 7.2797645615931090e+00 1.1816077876591077e+01 1 -1 -1
6135 2045 3 4.0999999999999998e-01 1.5534783394196410e+00 5.9704083414755471e-01 1.5786736608665763e+01 4 1 -1
5312 1771 4 -8.1999999999999995e-01 3.0744597959737545e+00 3.3469263923434758e+00 1.4914615364103589e+01 0 3 1
5118 1706 3 4.0999999999999998e-01 1.0147085637514348e+01 9.2996055872160142e+00 1.0616445527715220e+01 1 4 -1
1857 619 3 4.0999999999999998e-01 7.3273236669647277e+00 8.0802345270995115e+00 2.0149834504373338e+01 4 3 0
3457 1153 3 4.0999999999999998e-01 2.3770508003242097e+00 2.6011626519139557e+00 1.7835165074303504e+01 -3 0 1
5195 1732 4 -8.1999999999999995e-01 1.8630153819774631e+00 2.6283113604867929e+00 1.2070162261074273e+01 2 3 -2
1998 666 3 4.0999999999999998e-01 6.9140434042137944e+00 6.7838052516406231e+00 1.4238016134258045e+01 0 -1 -3
1142 381 4 -8.1999999999999995e-01 7.4257703554175531e+00 1.8011647887056019e+00 1.3126848410567794e+01 1 -1 -2
2190 730 3 4.0999999999999998e-01 8.7267521005184499e+00 8.6133816199042688e+00 1.6500816228815541e+01 2 0 -1
248 83 4 -8.1999999999999995e-01 4.1264901554946603e+00 5.7825596420114573e+00 1.2970570898339188e+01 0 3 -4
224 75 4 -8.1999999999999995e-01 5.3421852281646771e+00 9.4589312564367543e+00 1.5056309536502823e+01 -2 -3 -1
225 75 3 4.0999999999999998e-01 5.1323391673523737e+00 9.3861565981254191e+00 1.6052624062796401e+01 -2 -3 -1
7140 2380 3 4.0999999999999998e-01 1.0520612275204567e+01 6.4457666375169564e+00 1.4672194345561808e+01 3 0 0
6943 2315 3 4.0999999999999998e-01 7.9116558955940794e+00 5.1487010630437364e+00 1.2127793891452299e+01 -1 -2 0
263 88 4 -8.1999999999999995e-01 1.9928384202857339e+00 8.3584784287699794e+00 1.7111824437438518e+01 -3 0 -1
7090 2364 3 4.0999999999999998e-01 9.4020094355267183e+00 4.0609687451194461e+00 1.7339106232406749e+01 0 -2 1
2290 764 3 4.0999999999999998e-01 7.3643594899744018e+00 2.4524305876518988e+00 2.0110888509200940e+01 0 -2 4
4469 1490 4 -8.1999999999999995e-01 8.2602451742842362e+00 1.0141204149305867e+00 1.5576454569079607e+01 0 0 3
5313 1771 3 4.0999999999999998e-01 3.9900534071207399e+00 2.8396438131979727e+00 1.5015330350708787e+01 0 3 1
4708 1570 3 4.0999999999999998e-01 4.8321083757736844e-01 7.0665737942511333e+00 1.1953793873683745e+01 -1 4 -2
3458 1153 4 -8.1999999999999995e-01 2.9831164375477965e+00 1.8416862925388140e+00 1.8130848867063577e+01 -3 0 1
194 65 4 -8.1999999999999995e-01 1.8829895997144213e+00 7.8157195467159624e-01 2.0728052816438360e+01 2 3 0
5194 1732 3 4.0999999999999998e-01 2.7172225728303365e+00 3.0078331308174739e+00 1.1608127422828231e+01 2 3 -2
2419 807 3 4.0999999999999998e-01 8.0588265572758164e+00 9.6557893279412887e+00 1.1994887107669488e+01 -1 -5 -2
2462 821 4 -8.1999999999999995e-01 5.3976546992843586e+00 9.3510978527259727e+00 1.7852869463432413e+01 4 -2 0
247 83 3 4.0999999999999998e-01 4.8564574654303172e+00 6.2844621710583199e+00 1.3447095239456635e+01 0 3 -4
4307 1436 4 -8.1999999999999995e-01 9.1346407110652950e-01 3.6698518284237838e+00 1.7795203667546996e+01 -1 1 -2
1256 419 4 -8.1999999999999995e-01 5.6529217143161725e+00 2.5665301175429471e+00 1.7683871583600705e+01 -1 1 -1
5659 1887 3 4.0999999999999998e-01 5.4526477844212744e+00 8.8308713868704096e+00 1.1454248617646940e+01 2 2 1
7091 2364 4 -8.1999999999999995e-01 8.6739754758264862e+00 4.4087837597656776e+00 1.6690865584975437e+01 0 -2 1
7290 2430 3 4.0999999999999998e-01 4.5242329595672857e+00 6.4099782197446908e-01 1.1277380348383710e+01 -1 2 -1
5500 1834 3 4.0999999999999998e-01 8.7838365764101596e+00 7.4194829229296788e+00 1.3693662906076643e+01 -1 0 1
6516 2172 3 4.0999999999999998e-01 4.9403622754668763e+00 5.7699366633003519e+00 1.5805239689862351e+01 1 0 1
2544 848 3 4.0999999999999998e-01 1.7638305064901665e+00 5.3256089618144307e+00 2.0664817542779499e+01 1 1 0
1855 619 3 4.0999999999999998e-01 6.1439383706559800e+00 6.9981686652704589e+00 2.0289471304537937e+01 4 3 0
1996 666 3 4.0999999999999998e-01 5.9653101543707896e+00 7.5045717700616255e+00 1.5407561010083676e+01 0 -1 -3
5117 1706 4 -8.1999999999999995e-01 9.9047773524140119e+00 8.3163613322850285e+00 1.0785783019029690e+01 1 4 -1
1892 631 4 -8.1999999999999995e-01 4.7110458172293805e+00 5.9377768754124034e+00 2.0654920461858744e+01 2 1 -1
1893 631 3 4.0999999999999998e-01 4.0671615436033157e+00 6.2696338152157676e+00 1.9938411072539502e+01 2 1 -1
262 88 3 4.0999999999999998e-01 2.3546008224839388e+00 9.3502091913189975e+00 1.7231848949785693e+01 -3 0 -1
5501 1834 4 -8.1999999999999995e-01 8.1969353935236615e+00 7.9637073370730329e+00 1.2953487393961383e+01 -1 0 1
2523 841 3 4.0999999999999998e-01 3.1162323020112668e+00 6.5985932720124829e+00 1.2134142482320742e+01 1 -1 -1
1141 381 3 4.0999999999999998e-01 7.6406428630835146e+00 2.8141881832106121e+00 1.3076299968610130e+01 1 -1 -2
1143 381 3 4.0999999999999998e-01 7.8171864481875390e+00 1.4539873796691858e+00 1.4017458422968389e+01 1 -1 -2
1255 419 3 4.0999999999999998e-01 4.7464256961972895e+00 2.2716690491593141e+00 1.8082331570482051e+01 -1 1 -1
223 75 3 4.0999999999999998e-01 4.4267147383268561e+00 9.3928565197894631e+00 1.4532148619978635e+01 -2 -3 -1
3404 1135 4 -8.1999999999999995e-01 3.9539042259537114e+00 3.9931747289782966e+00 1.0789815094930447e+01 0 1 2
2189 730 4 -8.1999999999999995e-01 9.1701331253274478e+00 9.5516381314783008e+00 1.6436014982213866e+01 2 0 -1
4793 1598 4 -8.1999999999999995e-01 2.8185143270365174e+00 6.0547176660769999e+00 1.8590786627854865e+01 1 0 1
7139 2380 4 -8.1999999999999995e-01 9.4694760844820909e+00 6.3709024955989593e+00 1.4798042286541882e+01 3 0 0
6141 2047 3 4.0999999999999998e-01 7.5375328557477674e+00 7.3653372241961579e+00 1.8316841309636338e+01 4 -1 1
2188 730 3 4.0999999999999998e-01 8.3747208934556348e+00 1.0127175557378202e+01 1.6080060249276624e+01 2 0 -1
6942 2314 3 4.0999999999999998e-01 7.6976591595247141e+00 1.3724149955312070e+00 1.1606924489226095e+01 -3 -1 1
249 83 3 4.0999999999999998e-01 3.5015623434197511e+00 5.3441439736905956e+00 1.3650825995108615e+01 0 3 -4
802 268 3 4.0999999999999998e-01 5.4248987618281914e+00 2.3069084264493989e+00 1.6165077856197911e+01 -1 -3 -2
1736 579 4 -8.1999999999999995e-01 8.7820038890834535e+00 5.0888132208320176e+00 2.0377613927829266e+01 0 0 -2
5196 1732 3 4.0999999999999998e-01 1.1512452717098387e+00 2.8227266255909229e+00 1.1335376778350497e+01 2 3 -2
590 197 4 -8.1999999999999995e-01 4.3129434366219543e+00 5.0047247840413456e-01 1.2887674843894811e+01 3 -1 2
591 197 3 4.0999999999999998e-01 4.5805021603072573e+00 1.0746354983033346e+00 1.3671997724896409e+01 3 -1 2
3405 1135 3 4.0999999999999998e-01 4.3226968277379543e+00 4.6063391493728636e+00 1.1521798518795805e+01 0 1 2
1680 560 3 4.0999999999999998e-01 7.0719274158852896e-01 1.0278451381847693e+01 1.7064455371029293e+01 -3 0 1
6556 2186 3 4.0999999999999998e-01 8.5526910318491662e+00 1.4750858348813254e+00 1.8673740427736725e+01 0 0 0
804 268 3 4.0999999999999998e-01 6.1530044811828555e+00 2.0875952816475358e+00 1.4647523071469386e+01 -1 -3 -2
6784 2262 3 4.0999999999999998e-01 9.4044706168664458e+00 8.3489061159485018e+00 2.0680096664842306e+01 -3 3 2
589 197 3 4.0999999999999998e-01 3.3806747342658174e+00 2.3821791318055438e-01 1.3224677373787214e+01 3 -1 2
1891 631 3 4.0999999999999998e-01 4.6875791963064559e+00 4.8858702264485565e+00 2.0554347864005361e+01 2 1 -1
2521 841 3 4.0999999999999998e-01 2.4521951227598517e+00 7.4160848664381636e+00 1.0798356194558947e+01 1 -1 -1
1297 433 3 4.0999999999999998e-01 3.8212373897103067e+00 9.7770877595866583e+00 2.0420823933843135e+01 2 2 0
6133 2045 3 4.0999999999999998e-01 3.0376762372014596e+00 7.0042364016470848e-01 1.6522975967452552e+01 4 1 -1
1241 414 4 -8.1999999999999995e-01 1.4863068083765265e+00 9.7744658366758195e+00 2.0100756857767148e+01 -5 0 3
6786 2262 3 4.0999999999999998e-01 1.0406879980858626e+01 7.5129804342073099e+00 1.9705446719176951e+01 -3 3 2
3030 1010 3 4.0999999999999998e-01 2.1563316111449735e+00 9.1780669277988967e+00 1.4735297484712254e+01 5 -1 0
6941 2314 4 -8.1999999999999995e-01 7.6926441741470066e+00 1.3031722632391902e+00 1.0605972496349377e+01 -3 -1 1
1240 414 3 4.0999999999999998e-01 1.6188329563242270e+00 9.2889760964743200e+00 2.0968530118620940e+01 -5 0 3
4459 1487 3 4.0999999999999998e-01 2.2830649612061382e-01 9.5554662657342835e+00 1.4670869979730599e+01 -1 2 0
2341 781 3 4.0999999999999998e-01 9.6475170510174824e+00 1.0574734168023705e+01 1.7961546890935637e+01 -2 4 -1
2220 740 3 4.0999999999999998e-01 6.4907210703566633e+00 5.0190836615760714e+00 1.0831228968254045e+01 -3 -3 2
1859 620 4 -8.1999999999999995e-01 5.0422165252971123e+00 8.4179673687979601e+00 2.4398230039310736e+01 -5 2 -1
2240 747 4 -8.1999999999999995e-01 5.2762418339349413e+00 6.0274547026702496e+00 2.6620115976109670e+01 2 -1 0
7100 2367 4 -8.1999999999999995e-01 6.6959742613698028e+00 1.1991698800166681e+00 3.0643123568763816e+01 3 -1 2
1735 579 3 4.0999999999999998e-01 8.2388308718787453e+00 5.2556657267910936e+00 2.1180628240466380e+01 0 0 -2
904 302 3 4.0999999999999998e-01 6.6577659186671854e+00 2.2249048015490165e+00 2.2358700607454352e+01 2 2 0
1040 347 4 -8.1999999999999995e-01 8.1557458710345621e-01 1.0044084678887589e+01 2.6320510729017467e+01 -2 -2 0
4990 1664 3 4.0999999999999998e-01 9.1943831322286584e+00 9.9135264093407205e+00 2.8121825179072697e+01 -1 -1 -1
4243 1415 3 4.0999999999999998e-01 7.2305146915508818e+00 9.4954210244333375e+00 2.1917106024742157e+01 0 3 -1
5833 1945 3 4.0999999999999998e-01 4.8008498356442466e+00 3.0391609440767966e+00 2.5790411615231296e+01 -1 4 1
5475 1825 3 4.0999999999999998e-01 1.0113067918921324e+01 2.5484491331113217e+00 2.1218452406200267e+01 1 4 1
6192 2064 3 4.0999999999999998e-01 7.6588904017405905e+00 6.3262460863149625e+00 3.0177993667304072e+01 4 1 -4
4616 1539 4 -8.1999999999999995e-01 3.2174054613210723e+00 2.3964848700289809e+00 2.3408416597733705e+01 -2 -1 -1
4615 1539 3 4.0999999999999998e-01 3.8031995770436957e+00 2.7426419890586380e+00 2.4163598251907651e+01 -2 -1 -1
2543 848 4 -8.1999999999999995e-01 8.2771659032421296e-01 5.2391539540022904e+00 2.1067512435135157e+01 1 1 0
3676 1226 3 4.0999999999999998e-01 5.0046400801280937e+00 5.2800185566796296e+00 2.3749429010974989e+01 2 -2 -1
3003 1001 3 4.0999999999999998e-01 7.3337760156101783e+00 9.4112579191062924e+00 2.6078316927137116e+01 1 2 -2