LAMMPS data file via write_data, version 5 Jun 2019, timestep = 500000
# after 500ps of npt equilibration, removed velocities

7349 atoms
5 atom types
4899 bonds
2 bond types
2451 angles
2 angle types
1 impropers
1 improper types

1.5519297081455363e-01 4.1845807029189409e+01 xlo xhi
1.5469297081455124e-01 4.1845307029189406e+01 ylo yhi
1.5469297081455124e-01 4.1845307029189406e+01 zlo zhi

# Pair Coeffs
#
# 1  C4
# 2  Ca
# 3  H2
# 4  O2
# 5  O4

# Bond Coeffs
#
# 1  C4-O4
# 2  H2-O2

# Angle Coeffs
#
# 1  H2-O2-H2
# 2  O4-C4-O4

# Improper Coeffs
#
# 1  O4-O4-C4-O4

# Masses

# 1 12.01
# 2 40.08
# 3 1.01
# 4 16
# 5 16

Atoms # full

477 159 3 4.0999999999999998e-01 3.2876609538031318e+00 6.3882029937652858e+00 6.2253107702808794e+00 0 1 0
6563 2188 4 -8.1999999999999995e-01 3.8259512515811045e-01 4.7957717330081966e+00 2.9932771995326157e+00 0 1 0
743 248 4 -8.1999999999999995e-01 3.7624277442508345e+00 7.0587969373481112e+00 3.4231493415683856e+00 2 1 0
744 248 3 4.0999999999999998e-01 3.7199205291919673e+00 6.2269190076546934e+00 2.8244329211036190e+00 2 1 0
196 66 3 4.0999999999999998e-01 5.7124596932253908e+00 6.4633605759683874e+00 3.6266547541127374e+00 0 0 1
4645 1549 3 4.0999999999999998e-01 1.9419262111634035e+00 4.9748126875530128e+00 2.1478568770445357e+00 0 1 0
4646 1549 4 -8.1999999999999995e-01 2.8188823330685500e+00 5.2783919271468376e+00 1.6931585873677213e+00 0 1 0
4647 1549 3 4.0999999999999998e-01 2.8460340692123198e+00 4.8132690599155170e+00 7.6995748644533357e-01 0 1 0
3672 1224 3 4.0999999999999998e-01 1.0738896593626097e+00 6.7837868525335994e+00 3.7637845744438270e+00 1 1 0
2685 895 3 4.0999999999999998e-01 5.1104252721314047e+00 2.2970317060702374e+00 3.6776855326870663e+00 0 1 1
475 159 3 4.0999999999999998e-01 4.3095636605782275e+00 6.8377749236377179e+00 5.0342851736304750e+00 0 1 0
476 159 4 -8.1999999999999995e-01 4.2375169653664218e+00 6.2674162327630061e+00 5.9471150619207673e+00 0 1 0
6831 2277 3 4.0999999999999998e-01 3.1495826077544899e+00 2.4738449569757148e+00 4.8434607770898657e+00 1 1 0
6829 2277 3 4.0999999999999998e-01 4.0427149563759261e+00 3.9627693608375067e+00 5.0602112268066142e+00 1 1 0
6830 2277 4 -8.1999999999999995e-01 4.0811615306944038e+00 2.9177222942993297e+00 5.1562507089041887e+00 1 1 0
2354 785 4 -8.1999999999999995e-01 1.8001824743420376e+00 1.8521286061590183e+00 4.3547006573960099e+00 1 0 0
2355 785 3 4.0999999999999998e-01 1.4057860747267548e+00 1.8758243455794879e+00 3.3800991881373288e+00 1 0 0
3238 1080 3 4.0999999999999998e-01 7.9343943809183093e-01 1.0587212016106666e+00 1.3106291428783192e+00 0 0 0
5660 1887 4 -8.1999999999999995e-01 5.1281734235294396e-01 1.8807952453134149e+00 6.8227647586759872e+00 0 0 0
5659 1887 3 4.0999999999999998e-01 1.0723727625498805e+00 1.7961767967179338e+00 5.9275271648560519e+00 0 0 0
1890 630 3 4.0999999999999998e-01 5.0656416678823462e+00 1.8921402030193943e+00 6.2188334664487446e+00 1 0 0
3240 1080 3 4.0999999999999998e-01 2.3132881642880361e+00 8.0584101873910374e-01 5.4091136636499915e-01 0 0 0
2684 895 4 -8.1999999999999995e-01 5.9744609206840673e+00 1.9352419279984798e+00 3.2716751935202932e+00 0 1 1
2683 895 3 4.0999999999999998e-01 5.7730162761685611e+00 9.8999391719632790e-01 2.9274883765660116e+00 0 1 1
2854 952 3 4.0999999999999998e-01 2.0807694963426115e-01 3.2149544664241243e+00 2.4376574800253463e+00 1 0 1
6564 2188 3 4.0999999999999998e-01 1.8421635509749426e-01 4.5073288882974119e+00 3.9575808024066759e+00 0 1 0
3239 1080 4 -8.1999999999999995e-01 1.5256406971517191e+00 3.6462624040905373e-01 9.8916286641996276e-01 0 0 0
312 104 3 4.0999999999999998e-01 5.7945618104053365e-01 2.9821083437441085e+00 6.5733222378491418e-01 1 1 1
2353 785 3 4.0999999999999998e-01 1.8233340344775884e+00 9.0028542252176325e-01 4.7065310093892512e+00 1 0 0
3198 1066 3 4.0999999999999998e-01 4.5979529943029540e+00 1.6507960268928201e-01 2.6736547233805102e-01 0 0 0
1889 630 4 -8.1999999999999995e-01 5.3881085321146891e+00 1.1680112761256178e+00 6.8471406826722205e+00 1 0 0
5011 1671 3 4.0999999999999998e-01 5.9577653929895060e+00 5.7914059775435707e+00 6.5832109850920162e+00 0 1 1
3033 1011 3 4.0999999999999998e-01 1.0416537823756828e+01 6.0543417580225043e+00 1.1859297121488352e+00 1 0 1
3032 1011 4 -8.1999999999999995e-01 1.0232449657693589e+01 7.0574113140934394e+00 1.0447274709639509e+00 1 0 1
197 66 4 -8.1999999999999995e-01 6.4511321880234878e+00 5.7743971292815255e+00 3.5019999782325075e+00 0 0 1
198 66 3 4.0999999999999998e-01 7.2658380158004610e+00 5.8958698917226062e+00 4.1395799588040934e+00 0 0 1
7022 2341 4 -8.1999999999999995e-01 1.0416868013041961e+01 4.3283397684147928e+00 3.6361067542189534e+00 0 1 0
7021 2341 3 4.0999999999999998e-01 9.7160697450663331e+00 3.6116611121687163e+00 3.8685621836027915e+00 0 1 0
3844 1282 3 4.0999999999999998e-01 9.1614266016247825e+00 6.9315636276793153e+00 5.0253126873502554e+00 0 0 0
3846 1282 3 4.0999999999999998e-01 9.6683775170413142e+00 5.3149446330887438e+00 4.9938458940505326e+00 0 0 0
3845 1282 4 -8.1999999999999995e-01 8.8920764364933653e+00 5.9521979682915518e+00 5.1932384641625076e+00 0 0 0
7023 2341 3 4.0999999999999998e-01 1.0711979015198242e+01 4.4203718056280534e+00 2.6281198767904268e+00 0 1 0
3295 1099 3 4.0999999999999998e-01 1.1437605868781008e+01 5.7355771524051153e+00 4.6615722207170878e+00 0 0 1
3296 1099 4 -8.1999999999999995e-01 1.1816719740277932e+01 6.5212076324196255e+00 5.1913909112353451e+00 0 0 1
5501 1834 4 -8.1999999999999995e-01 8.6101347208450250e+00 2.0079443119484139e+00 3.7997520274213539e+00 -1 1 1
5500 1834 3 4.0999999999999998e-01 9.0759309426701105e+00 1.1083571275606632e+00 3.7570981523775369e+00 -1 1 1
5502 1834 3 4.0999999999999998e-01 7.6620948887014801e+00 1.9555120793631571e+00 4.1476597399065414e+00 -1 1 1
2194 732 3 4.0999999999999998e-01 7.0540301095634304e+00 3.1178911181030098e+00 2.0272594912961099e+00 1 1 0
5013 1671 3 4.0999999999999998e-01 7.6174050807429596e+00 5.8892873306210811e+00 6.3266397059374775e+00 0 1 1
6557 2186 4 -8.1999999999999995e-01 8.8318101140744147e+00 2.3316193267735341e-01 1.4864140627566662e+00 -1 1 0
2195 732 4 -8.1999999999999995e-01 7.3181178996157854e+00 4.0270998427011513e+00 1.7528808484132730e+00 1 1 0
2196 732 3 4.0999999999999998e-01 6.8027594696270866e+00 4.6637097891215822e+00 2.3978934245212478e+00 1 1 0
6333 2111 3 4.0999999999999998e-01 1.1909401986708081e+01 3.5028330418716931e+00 4.3939123591987315e+00 0 0 0
2562 854 3 4.0999999999999998e-01 9.3532078158300749e+00 3.1995008118168404e+00 5.8230216641608079e+00 1 0 1
2560 854 3 4.0999999999999998e-01 9.7141299499146960e+00 1.7438682865115724e+00 6.5243613752866949e+00 1 0 1
5012 1671 4 -8.1999999999999995e-01 6.8601675743216539e+00 6.0590464112377438e+00 7.0024894421589838e+00 0 1 1
2561 854 4 -8.1999999999999995e-01 9.5518218405874826e+00 2.7472840526767728e+00 6.7609310099024214e+00 1 0 1
6861 2287 3 4.0999999999999998e-01 9.0400865695434511e+00 1.9421529139344065e+00 6.7151845104048979e-01 -1 1 1
7150 2384 3 4.0999999999999998e-01 1.1435496168107298e+01 3.8128258478233801e+00 5.8984122947104400e-01 0 0 1
2313 771 3 4.0999999999999998e-01 6.4795258251187722e+00 4.4284186269403127e+00 3.1714820274442773e-01 0 1 1
6860 2287 4 -8.1999999999999995e-01 9.0402605530365108e+00 2.8344594743976912e+00 1.6852002249845294e-01 -1 1 1
6859 2287 3 4.0999999999999998e-01 8.3133923932967377e+00 3.4990880391283556e+00 5.7139598657011559e-01 -1 1 1
7151 2384 4 -8.1999999999999995e-01 1.1634924440676885e+01 4.7973634861225642e+00 7.7980544801154106e-01 0 0 1
79 27 3 4.0999999999999998e-01 1.3114644112731916e+01 7.5813676712230682e-01 6.6747783602364992e+00 1 0 1
6837 2279 3 4.0999999999999998e-01 1.5634573158232088e+01 1.4201927255845372e+00 5.8845895078430157e+00 0 0 1
304 102 3 4.0999999999999998e-01 1.3507815470314073e+01 6.9365776813409150e+00 5.2403164369203221e+00 0 0 1
2909 970 4 -8.1999999999999995e-01 1.5235807188624474e+01 5.1933185358184542e+00 6.8409866939833606e+00 1 0 0
2910 970 3 4.0999999999999998e-01 1.4532253042889613e+01 4.5215450074319632e+00 7.0967017651633943e+00 1 0 0
434 145 4 -8.1999999999999995e-01 1.7683692737313198e+01 7.0738020280565062e+00 2.6951894113573234e+00 0 1 1
306 102 3 4.0999999999999998e-01 1.4879014027535838e+01 6.4106880012233711e+00 5.8678528466940847e+00 0 0 1
435 145 3 4.0999999999999998e-01 1.6951237854137563e+01 6.4049258296736928e+00 2.3664791658448894e+00 0 1 1
5406 1802 3 4.0999999999999998e-01 1.4719519008778862e+01 4.8239539959087052e+00 1.3863574036641857e+00 0 0 1
5405 1802 4 -8.1999999999999995e-01 1.5241970288380365e+01 5.5911782949235178e+00 1.7997874707211670e+00 0 0 1
4281 1427 3 4.0999999999999998e-01 1.5624797975285279e+01 4.7029561629280412e+00 5.1953244284199700e+00 0 0 1
4279 1427 3 4.0999999999999998e-01 1.5459484446029997e+01 4.7767188023088876e+00 3.5331569478558196e+00 0 0 1
4280 1427 4 -8.1999999999999995e-01 1.5498712088301478e+01 4.1090750628590369e+00 4.3180691242939853e+00 0 0 1
2253 751 3 4.0999999999999998e-01 1.7726204030128645e+01 2.1340622532673823e+00 1.5199750360649982e+00 1 0 0
6332 2111 4 -8.1999999999999995e-01 1.2712416029347470e+01 3.1673444876985930e+00 4.9842641012213003e+00 0 0 0
6835 2279 3 4.0999999999999998e-01 1.5813683284576147e+01 2.4771913695988741e+00 4.6318788586900475e+00 0 0 1
6331 2111 3 4.0999999999999998e-01 1.3599921211385706e+01 3.5489575949673480e+00 4.5366301040873394e+00 0 0 0
5404 1802 3 4.0999999999999998e-01 1.4781557504788990e+01 6.4793540134627161e+00 1.5518832151767310e+00 0 0 1
3948 1316 3 4.0999999999999998e-01 1.4936373393092859e+01 2.3596409467715764e+00 5.0979106587127965e-01 1 0 0
3947 1316 4 -8.1999999999999995e-01 1.4473463290902302e+01 3.1828362700539552e+00 1.8215895140772614e-01 1 0 0
80 27 4 -8.1999999999999995e-01 1.2607412385315776e+01 3.1514379568777684e-01 5.8938993794342878e+00 1 0 1
2224 742 3 4.0999999999999998e-01 1.2704727736826753e+01 3.3795545165915257e+00 7.0203040652279736e+00 0 1 1
4997 1666 4 -8.1999999999999995e-01 1.6684568835963745e+01 1.1676295955933504e+00 7.1921896922204120e-01 0 0 0
6836 2279 4 -8.1999999999999995e-01 1.5815034777212801e+01 1.4673327915327281e+00 4.9066910360229237e+00 0 0 1
81 27 3 4.0999999999999998e-01 1.2606502332155063e+01 1.1382794198568789e+00 5.2261150696873804e+00 1 0 1
4998 1666 3 4.0999999999999998e-01 1.6491044382646763e+01 3.7756136329750745e-01 1.3757988032140465e+00 0 0 0
7152 2384 3 4.0999999999999998e-01 1.2311702419785583e+01 5.1707580518823804e+00 1.7984091175819827e-01 0 0 1
6823 2275 3 4.0999999999999998e-01 1.9102768060070051e+01 4.2801809751508264e+00 3.7260645384122739e+00 0 0 0
6824 2275 4 -8.1999999999999995e-01 1.9618375089623907e+01 4.3395008802156179e+00 4.5923565188085869e+00 0 0 0
2252 751 4 -8.1999999999999995e-01 1.8411837858187333e+01 2.5993386463714838e+00 2.1349509650250802e+00 1 0 0
6825 2275 3 4.0999999999999998e-01 2.0056942274841489e+01 5.2800257167970095e+00 4.7215842103137744e+00 0 0 0
4638 1546 3 4.0999999999999998e-01 2.1837552819150758e+01 1.6010589950453293e+00 5.8075143948548247e-01 0 1 1
6779 2260 4 -8.1999999999999995e-01 1.8547377223326411e+01 2.3622399152686113e+00 5.9344475344821079e+00 0 0 0
6780 2260 3 4.0999999999999998e-01 1.8993066836999006e+01 3.1576737768866976e+00 5.3853626263726353e+00 0 0 0
6778 2260 3 4.0999999999999998e-01 1.8133848320865305e+01 1.7699620249816146e+00 5.1490331342375759e+00 0 0 0
2251 751 3 4.0999999999999998e-01 1.9102156328338889e+01 2.0478363448988137e+00 2.6541656292478417e+00 1 0 0
6983 2328 4 -8.1999999999999995e-01 2.1831622937149724e+01 4.1832683314412753e+00 6.6467429835480827e+00 0 0 0
6982 2328 3 4.0999999999999998e-01 2.1762287289973056e+01 5.2148620598425888e+00 6.3672049950639860e+00 0 0 0
5948 1983 4 -8.1999999999999995e-01 2.2933198619151227e+01 6.4593146119203704e+00 2.1658564612416558e+00 1 0 1
3605 1202 4 -8.1999999999999995e-01 2.1084599240579813e+01 6.7048344310836514e+00 5.9208887275903557e+00 0 0 1
5949 1983 3 4.0999999999999998e-01 2.2001108828679094e+01 6.6350348085640345e+00 2.6096361035480764e+00 1 0 1
5947 1983 3 4.0999999999999998e-01 2.3093083834005711e+01 5.4160476171740344e+00 2.0302871638093558e+00 1 0 1
154 52 3 4.0999999999999998e-01 2.1868750762738831e+01 3.1407321247770668e+00 4.9972212067850164e+00 0 0 0
155 52 4 -8.1999999999999995e-01 2.2379591958098516e+01 2.5798335362855154e+00 4.2264582231434211e+00 0 0 0
839 280 4 -8.1999999999999995e-01 2.3485599054232431e+01 3.9191842373398864e+00 1.9097885001454993e+00 0 0 0
156 52 3 4.0999999999999998e-01 2.2673273231973265e+01 3.2212397102286991e+00 3.4327087564286201e+00 0 0 0
4859 1620 4 -8.1999999999999995e-01 2.0241180392995080e+01 7.1015502104760557e+00 2.1753859388949888e+00 0 0 1
4209 1403 3 4.0999999999999998e-01 2.1088556133107819e+01 1.3519317406934623e+00 3.5039619058073250e+00 0 1 0
4858 1620 3 4.0999999999999998e-01 1.9214206320964877e+01 7.0867946327067681e+00 2.4592986934320891e+00 0 0 1
3436 1146 3 4.0999999999999998e-01 2.3309818619415040e+01 1.2904238995462676e+00 4.7075571741624449e+00 -1 0 0
4208 1403 4 -8.1999999999999995e-01 2.0141723576049358e+01 9.2836315170831918e-01 3.3755600082135717e+00 0 1 0
3604 1202 3 4.0999999999999998e-01 2.0127707238576054e+01 7.0628793359435820e+00 5.9555557565254453e+00 0 0 1
840 280 3 4.0999999999999998e-01 2.3117144285365239e+01 3.2785106183167065e+00 1.2185052419153739e+00 0 0 0
4860 1620 3 4.0999999999999998e-01 2.0315174021739843e+01 6.9016747959711147e+00 1.1693809106076227e+00 0 0 1
3741 1247 3 4.0999999999999998e-01 2.3394281836803774e+01 4.7405965723992596e+00 6.3792729314484262e+00 0 0 1
6809 2270 4 -8.1999999999999995e-01 2.0315514534054881e+01 3.1167993219731521e-01 5.0658537391273484e-01 1 0 1
6808 2270 3 4.0999999999999998e-01 1.9849370950773817e+01 3.0209472817421756e-01 1.4027098447583615e+00 1 0 1
3437 1146 4 -8.1999999999999995e-01 2.3616742355910372e+01 3.2652531270082713e-01 5.0097892588500628e+00 -1 0 0
4637 1546 4 -8.1999999999999995e-01 2.2006837200063451e+01 2.5295660417368659e+00 2.6616060956041876e-01 0 1 1
6141 2047 3 4.0999999999999998e-01 2.4269111903041367e+01 7.0367142071301272e+00 3.2871804182277069e+00 0 0 1
838 280 3 4.0999999999999998e-01 2.4502554390541004e+01 3.9673808904355852e+00 1.9588117436903014e+00 0 0 0
2503 835 3 4.0999999999999998e-01 2.4419426236221593e+01 8.8324715852871849e-01 6.5718994325534101e+00 0 1 1
627 209 3 4.0999999999999998e-01 2.7745285460084201e+01 2.4230034212012561e+00 5.9139755869990243e+00 -1 0 0
626 209 4 -8.1999999999999995e-01 2.7458776924447100e+01 1.4868436504880536e+00 6.1563929314734605e+00 -1 0 0
3740 1247 4 -8.1999999999999995e-01 2.4219779007558426e+01 5.3177648541536975e+00 6.2596030806526848e+00 0 0 1
3739 1247 3 4.0999999999999998e-01 2.4286813910073931e+01 5.6433766900724311e+00 5.3189459756286359e+00 0 0 1
7047 2349 3 4.0999999999999998e-01 2.6563589302663921e+01 5.3904800277813392e+00 2.2270982099393359e+00 -1 1 1
4518 1506 3 4.0999999999999998e-01 2.5995034151135613e+01 5.0391865188940841e+00 6.6630055751959505e+00 -1 1 1
4517 1506 4 -8.1999999999999995e-01 2.6908670785150246e+01 5.1340714130388410e+00 7.0346792318158897e+00 -1 1 1
4516 1506 3 4.0999999999999998e-01 2.7524135408334203e+01 4.5505550362855391e+00 6.4808956297149356e+00 -1 1 1
625 209 3 4.0999999999999998e-01 2.6424569642205203e+01 1.4606961703601127e+00 6.2660705648741892e+00 -1 0 0
7046 2349 4 -8.1999999999999995e-01 2.6243392989202651e+01 4.6493832594858793e+00 1.6111970905100206e+00 -1 1 1
7045 2349 3 4.0999999999999998e-01 2.6896163751252026e+01 3.8612646740172623e+00 1.7416565509932251e+00 -1 1 1
2676 892 3 4.0999999999999998e-01 2.8114596640517728e+01 7.0327719822758894e+00 3.7062857583684887e+00 0 0 1
5993 1998 4 -8.1999999999999995e-01 2.8596753294694423e+01 3.8037983207560329e+00 5.1304112084316893e+00 0 0 1
5994 1998 3 4.0999999999999998e-01 2.8796151726777268e+01 3.9493630740921768e+00 4.1162209974103199e+00 0 0 1
2675 892 4 -8.1999999999999995e-01 2.7249274276590413e+01 7.0125495181943043e+00 3.1755389110237386e+00 0 0 1
4442 1481 4 -8.1999999999999995e-01 2.8028885541181339e+01 2.6989824219034459e+00 1.7029924096735847e+00 0 1 0
4441 1481 3 4.0999999999999998e-01 2.7795445500617230e+01 1.7245327915812905e+00 1.6772168354795538e+00 0 1 0
4443 1481 3 4.0999999999999998e-01 2.8780839238270072e+01 2.7164108183586246e+00 9.7159993832135738e-01 0 1 0
5992 1998 3 4.0999999999999998e-01 2.9419992339489500e+01 3.9983720740839810e+00 5.6610304108469869e+00 0 0 1
5710 1904 3 4.0999999999999998e-01 2.8772332207342451e+01 5.2043147395936440e-01 5.3825288064446672e+00 0 1 0
126 42 3 4.0999999999999998e-01 2.6946077508860988e+01 6.8594383229498677e+00 6.8805146729033098e+00 0 -1 1
5712 1904 3 4.0999999999999998e-01 2.9871423936480888e+01 4.3375948238983986e-01 4.1806875067660849e+00 0 1 0
2159 720 4 -8.1999999999999995e-01 3.3301257670611058e+01 1.1270392141174279e+00 4.0133868081135987e-01 0 0 0
5042 1681 4 -8.1999999999999995e-01 3.0382107722333828e+01 4.4298724831953047e+00 2.3878716902291464e+00 0 1 1
5043 1681 3 4.0999999999999998e-01 2.9965753404809238e+01 4.7196051997275399e+00 1.4647992175129187e+00 0 1 1
2587 863 3 4.0999999999999998e-01 3.5041064475497500e+01 4.6866914086080658e-01 3.5873180945733294e+00 0 0 0
5041 1681 3 4.0999999999999998e-01 3.0367028200013216e+01 5.2817215875756762e+00 2.9487337301613281e+00 0 1 1
5741 1914 4 -8.1999999999999995e-01 3.2750691514551022e+01 6.1093408906539439e+00 5.2571311568691703e-01 0 1 1
2228 743 4 -8.1999999999999995e-01 3.2408707874472654e+01 1.6517728581032161e+00 5.4200568084240315e+00 0 0 0
2227 743 3 4.0999999999999998e-01 3.2236146325721606e+01 1.0699757383515824e+00 6.2026392719895052e+00 0 0 0
4320 1440 3 4.0999999999999998e-01 3.0678519663132455e+01 6.3716835305332937e+00 4.8566680765633015e+00 0 1 0
4319 1440 4 -8.1999999999999995e-01 3.1554238728752182e+01 5.9168429049163214e+00 4.4305718167621819e+00 0 1 0
4318 1440 3 4.0999999999999998e-01 3.2377772750955401e+01 6.5377932566826829e+00 4.5368111678222576e+00 0 1 0
2229 743 3 4.0999999999999998e-01 3.1663818129195104e+01 1.5818511974392055e+00 4.7199311124150833e+00 0 0 0
5223 1741 3 4.0999999999999998e-01 3.2602594847640709e+01 4.5049873429867002e+00 3.9334101434716633e+00 1 1 1
5221 1741 3 4.0999999999999998e-01 3.3216011954429966e+01 3.0076297033706534e+00 4.4496275397654781e+00 1 1 1
2589 863 3 4.0999999999999998e-01 3.3851740515844270e+01 8.3381981158736929e-01 4.8169614637821896e+00 0 0 0
5222 1741 4 -8.1999999999999995e-01 3.3374081324986300e+01 3.8386882673090832e+00 3.9256650996592746e+00 1 1 1
6790 2264 3 4.0999999999999998e-01 3.4683692900107708e+01 1.0820801740801536e+00 1.2927521000899242e+00 0 1 0
6791 2264 4 -8.1999999999999995e-01 3.5475077832153779e+01 6.8791624909461535e-01 1.8879260193203562e+00 0 1 0
2155 719 3 4.0999999999999998e-01 3.0579490273197660e+01 2.9067505339778608e+00 2.8800464801989616e+00 0 0 1
5394 1798 3 4.0999999999999998e-01 3.4465573833273069e+01 6.3830618886936108e+00 5.3489824492302747e+00 -1 0 0
5393 1798 4 -8.1999999999999995e-01 3.5306027267408098e+01 5.9034104408879458e+00 4.8875510552234687e+00 -1 0 0
1519 507 3 4.0999999999999998e-01 3.4023873399176843e+01 3.9342431475128024e+00 2.4934561504692203e+00 0 0 0
2156 719 4 -8.1999999999999995e-01 3.0560570442192191e+01 1.8656360356389545e+00 3.1092078331220585e+00 0 0 1
2157 719 3 4.0999999999999998e-01 3.0945213718903478e+01 1.4009859009935457e+00 2.2585621790611250e+00 0 0 1
1520 507 4 -8.1999999999999995e-01 3.4533198796570673e+01 4.0305820962143137e+00 1.5862470111688820e+00 0 0 0
5392 1798 3 4.0999999999999998e-01 3.4847046952138164e+01 5.0967869818219782e+00 4.3767641034101281e+00 -1 0 0
4267 1423 3 4.0999999999999998e-01 3.5593203245864999e+01 4.6231102961801627e+00 5.8722814742647222e-01 0 1 0
1521 507 3 4.0999999999999998e-01 3.3852860295854846e+01 4.1694175660702717e+00 7.9574225267086895e-01 0 0 0
2588 863 4 -8.1999999999999995e-01 3.4824680316473099e+01 5.1660693828374837e-01 4.6282380307404125e+00 0 0 0
5742 1914 3 4.0999999999999998e-01 3.1965092160791144e+01 6.7638851999643714e+00 6.0408998409183123e-01 0 1 1
1128 376 3 4.0999999999999998e-01 3.1175896259306771e+01 4.7795839846014720e+00 6.4186357891168422e+00 0 1 0
1127 376 4 -8.1999999999999995e-01 3.0770992157659204e+01 4.0018838268107437e+00 6.9196233424569176e+00 0 1 0
2158 720 3 4.0999999999999998e-01 3.2642566513296963e+01 1.9283096548247813e+00 3.1001577130869795e-01 0 0 0
2855 952 4 -8.1999999999999995e-01 4.1752495323525018e+01 2.2688882666549133e+00 2.1786811458940165e+00 0 0 1
6792 2264 3 4.0999999999999998e-01 3.6227377141440172e+01 8.0247718902249998e-01 1.1305661112576613e+00 0 1 0
5082 1694 3 4.0999999999999998e-01 3.6068053344102367e+01 3.3829767416956680e-01 5.9294825136676952e+00 -1 0 1
5794 1932 3 4.0999999999999998e-01 3.6953790002338074e+01 6.0675424810115510e+00 4.6708024248585991e+00 0 0 1
5795 1932 4 -8.1999999999999995e-01 3.7979221428973275e+01 6.3162422324668368e+00 4.6727039831978656e+00 0 0 1
6562 2188 3 4.0999999999999998e-01 4.1092674551239597e+01 4.9316257645508408e+00 2.6353282555868023e+00 -1 1 0
5348 1783 4 -8.1999999999999995e-01 3.9420325047387891e+01 4.4858332832063139e+00 2.3217277833453367e+00 0 1 0
5349 1783 3 4.0999999999999998e-01 3.8778154889550414e+01 3.7173134779599226e+00 2.3603811168582647e+00 0 1 0
6262 2088 3 4.0999999999999998e-01 3.6605848047948733e+01 1.9821302900893738e+00 2.6872383909978752e+00 0 0 1
6263 2088 4 -8.1999999999999995e-01 3.7116680240147531e+01 2.8620238833578746e+00 2.6828560103376273e+00 0 0 1
5347 1783 3 4.0999999999999998e-01 3.9241808357382972e+01 5.1649226818622793e+00 1.5787019434928253e+00 0 1 0
6264 2088 3 4.0999999999999998e-01 3.6306723230516702e+01 3.5250219350794838e+00 2.6763547684567754e+00 0 0 1
4844 1615 4 -8.1999999999999995e-01 3.8072734779785499e+01 3.4262743496478008e+00 5.2609591103601048e+00 0 0 1
2618 873 4 -8.1999999999999995e-01 4.0732047719361731e+01 3.9432049794061812e+00 5.4879802067529688e+00 0 0 1
2856 952 3 4.0999999999999998e-01 4.1113088888347484e+01 1.8181916319411442e+00 2.8343946190446081e+00 0 0 1
2619 873 3 4.0999999999999998e-01 4.1448964005013643e+01 3.3399628164018225e+00 5.9215835676862358e+00 0 0 1
5796 1932 3 4.0999999999999998e-01 3.8388150133787335e+01 5.4035719149179950e+00 4.8542454271034439e+00 0 0 1
5719 1907 3 4.0999999999999998e-01 3.7716903425980590e+01 3.1345647039762796e+00 6.8005116114074919e+00 -2 0 1
4843 1615 3 4.0999999999999998e-01 3.9067544387191880e+01 3.5902339074638565e+00 4.9939982756307195e+00 0 0 1
4845 1615 3 4.0999999999999998e-01 3.7509998732551573e+01 3.0423643423033289e+00 4.5167652464079406e+00 0 0 1
6157 2053 3 4.0999999999999998e-01 3.7518337305280021e+01 6.7704706569808257e+00 2.2243770872754114e+00 0 0 0
5183 1728 4 -8.1999999999999995e-01 4.0351704054843772e+01 8.2606783767224268e-01 3.9946782185208560e+00 -1 1 0
2617 873 3 4.0999999999999998e-01 4.0407583455290421e+01 4.5413201803062773e+00 6.2838694597822995e+00 0 0 1
5182 1728 3 4.0999999999999998e-01 4.0091196153770490e+01 1.4435901478534501e+00 4.7656796392159899e+00 -1 1 0
4347 1449 3 4.0999999999999998e-01 3.5954079693547605e+01 6.8383634239831919e+00 5.9597245351438790e+00 1 0 1
5080 1694 3 4.0999999999999998e-01 3.6918545282879400e+01 1.1772058587760414e+00 7.0591213810313684e+00 -1 0 1
5081 1694 4 -8.1999999999999995e-01 3.6857634872313142e+01 2.5983920993080550e-01 6.5809904784647726e+00 -1 0 1
4855 1619 3 4.0999999999999998e-01 3.8003711503621304e+01 1.6735848695262627e+00 1.6952540234402849e-01 0 1 1
1150 384 3 4.0999999999999998e-01 7.9374771854207615e-01 1.3151476264767473e+01 2.8586817507423903e+00 1 0 0
742 248 3 4.0999999999999998e-01 3.3888118412227564e+00 7.8294956000362932e+00 2.8834406089995830e+00 2 1 0
5328 1776 3 4.0999999999999998e-01 4.8584859278273438e+00 1.0725194580816799e+01 5.2882702155341779e+00 1 1 0
5327 1776 4 -8.1999999999999995e-01 4.2012184596588495e+00 9.9024255358713358e+00 5.4602548677258520e+00 1 1 0
3671 1224 4 -8.1999999999999995e-01 8.9292500933055963e-01 7.6774842482091623e+00 4.2701014993352731e+00 1 1 0
5326 1776 3 4.0999999999999998e-01 4.8610885209177077e+00 9.1126580770300389e+00 5.4688594678349878e+00 1 1 0
4618 1540 3 4.0999999999999998e-01 4.8552869609601936e+00 1.3836252311327783e+01 2.0264418012894803e+00 0 0 0
4650 1550 3 4.0999999999999998e-01 4.4786767485154613e+00 1.0510213794901286e+01 1.2933065851975654e+00 1 0 1
4649 1550 4 -8.1999999999999995e-01 3.5178877906162866e+00 1.0517055449651348e+01 8.9644957889057886e-01 1 0 1
4648 1550 3 4.0999999999999998e-01 2.9828587454549038e+00 1.0277676345719247e+01 1.7833626783894105e+00 1 0 1
428 143 4 -8.1999999999999995e-01 2.4785185535754248e+00 9.5826130067151372e+00 3.1788739369706023e+00 1 0 0
429 143 3 4.0999999999999998e-01 1.7863859673087370e+00 8.8662104652391722e+00 3.4836529883712362e+00 1 0 0
427 143 3 4.0999999999999998e-01 2.9921581881380965e+00 9.7883898219164553e+00 4.0788371261754879e+00 1 0 0
4619 1540 4 -8.1999999999999995e-01 4.3541995233767654e+00 1.3630512692043613e+01 2.8943148456092631e+00 0 0 0
6846 2282 3 4.0999999999999998e-01 5.5546889467612051e+00 1.2618705760934676e+01 3.7414389409789894e+00 0 0 0
6693 2231 3 4.0999999999999998e-01 1.3119593926600590e+00 1.3044117859208708e+01 6.4247259555162310e+00 1 1 1
4620 1540 3 4.0999999999999998e-01 3.2852211247362257e+00 1.3678123066606439e+01 2.7581535943956559e+00 0 0 0
6844 2282 3 4.0999999999999998e-01 5.9927770907857969e+00 1.1033943603839402e+01 3.5012010025864928e+00 0 0 0
6845 2282 4 -8.1999999999999995e-01 5.8878273437947799e+00 1.1773865197838074e+01 4.1840688172045573e+00 0 0 0
3013 1005 3 4.0999999999999998e-01 7.2674992686220496e-01 1.0782867152009230e+01 3.6101927983186690e+00 1 1 0
6691 2231 3 4.0999999999999998e-01 1.9801549152028544e-01 1.2140884097450227e+01 5.5689773018477258e+00 1 1 1
6692 2231 4 -8.1999999999999995e-01 4.6428474929669761e-01 1.2543090954064986e+01 6.4805024268278535e+00 1 1 1
5784 1928 3 4.0999999999999998e-01 4.7526783185470761e-01 8.2638008745168410e+00 9.9099428381058874e-01 0 0 1
2264 755 4 -8.1999999999999995e-01 6.0554236762815341e+00 9.9554691376370936e+00 2.0608635339052830e+00 0 0 0
107 36 4 -8.1999999999999995e-01 5.8792296770552772e+00 1.3942469347645552e+01 5.8692063202809530e-01 0 -1 0
5782 1928 3 4.0999999999999998e-01 1.7694702135336604e+00 8.9447335646268531e+00 4.3664974959161279e-01 0 0 1
1151 384 4 -8.1999999999999995e-01 1.6497847871709248e+00 1.3629684181506983e+01 2.6772174479355506e+00 1 0 0
4820 1607 4 -8.1999999999999995e-01 4.0159440930364703e+00 1.3877367675686086e+01 5.6417767001322074e+00 1 1 1
4821 1607 3 4.0999999999999998e-01 3.9513139825765613e+00 1.3422109019658874e+01 4.7187435533173128e+00 1 1 1
5783 1928 4 -8.1999999999999995e-01 1.2419798877119190e+00 8.0372241062483596e+00 3.8671624375394442e-01 0 0 1
53 18 4 -8.1999999999999995e-01 1.6599006148205853e+00 7.2397015074315769e+00 6.8122562862706433e+00 1 0 0
52 18 3 4.0999999999999998e-01 1.6813237990587875e+00 7.6529707714184578e+00 5.8729309185177430e+00 1 0 0
108 36 3 4.0999999999999998e-01 5.0160513050523576e+00 1.3489081646427865e+01 1.9940029989069108e-01 0 -1 0
3297 1099 3 4.0999999999999998e-01 1.1802623565282138e+01 7.3563501189398366e+00 4.5568074291032312e+00 0 0 1
1498 500 3 4.0999999999999998e-01 1.1572324130916707e+01 7.7944434191260559e+00 2.1049312177655026e+00 1 0 0
1499 500 4 -8.1999999999999995e-01 1.2015096112851360e+01 8.2592841817861267e+00 2.8999507713647192e+00 1 0 0
2051 684 4 -8.1999999999999995e-01 6.1431456909746647e+00 7.4145913068286760e+00 4.9140285887107271e-01 1 0 0
5195 1732 4 -8.1999999999999995e-01 7.0897056619789822e+00 1.1606438255466212e+01 4.3900222608439482e-01 0 -1 0
2265 755 3 4.0999999999999998e-01 6.6069044561369585e+00 1.0466175782617231e+01 1.3592832859536794e+00 0 0 0
1986 662 3 4.0999999999999998e-01 8.9183192253640851e+00 7.8009429137891191e+00 1.7077935993260154e+00 0 0 1
1985 662 4 -8.1999999999999995e-01 8.2045088499300913e+00 8.3210821340632553e+00 2.2088781639838109e+00 0 0 1
1984 662 3 4.0999999999999998e-01 8.6528227050732767e+00 8.5203722002703017e+00 3.1083459349841216e+00 0 0 1
4083 1361 3 4.0999999999999998e-01 1.1236423808630697e+01 7.2618354437424442e+00 6.5036612273234340e+00 1 0 1
3519 1173 3 4.0999999999999998e-01 8.0812496937754279e+00 9.0489250920531603e+00 5.0534351668478710e+00 0 1 0
3518 1173 4 -8.1999999999999995e-01 8.9995869343624815e+00 8.7396823358512599e+00 4.6560078840488899e+00 0 1 0
3517 1173 3 4.0999999999999998e-01 9.5657378447919470e+00 9.5535153630967251e+00 4.6460070051017617e+00 0 1 0
6435 2145 3 4.0999999999999998e-01 1.0087538187840316e+01 1.1322237175728556e+01 3.3147976593676129e+00 0 1 1
6434 2145 4 -8.1999999999999995e-01 1.0497014083329223e+01 1.0439725454338321e+01 2.9867387845353019e+00 0 1 1
6433 2145 3 4.0999999999999998e-01 1.0342835675432003e+01 1.0351307412444330e+01 1.9784364944085904e+00 0 1 1
6656 2219 4 -8.1999999999999995e-01 9.7540605243703808e+00 1.2427403850533045e+01 4.7702064863609293e+00 0 0 1
1262 421 4 -8.1999999999999995e-01 7.3918014376615186e+00 1.3413470912458326e+01 5.5595164824057752e+00 0 -1 0
6655 2219 3 4.0999999999999998e-01 8.8558163890774484e+00 1.2732010935299868e+01 5.1576391830005326e+00 0 0 1
1263 421 3 4.0999999999999998e-01 6.7016020904879099e+00 1.2672244016011780e+01 5.2441181859481434e+00 0 -1 0
1953 651 3 4.0999999999999998e-01 1.1190623545820593e+01 1.2358155101419790e+01 5.7506707195769886e+00 0 1 0
2263 755 3 4.0999999999999998e-01 6.6681317449579405e+00 9.1870560796314216e+00 2.4521686794241333e+00 0 0 0
6383 2128 4 -8.1999999999999995e-01 1.1417469409262889e+01 1.3476160831699449e+01 7.6783409804189606e-01 1 0 0
666 222 3 4.0999999999999998e-01 8.2332076988714462e+00 1.3797144740894213e+01 6.9763765151417809e+00 0 0 0
1500 500 3 4.0999999999999998e-01 1.1556704455738195e+01 9.2161692807477795e+00 2.9589582680319402e+00 1 0 0
6657 2219 3 4.0999999999999998e-01 1.0140328960981819e+01 1.3309921972891658e+01 4.3060394854585207e+00 0 0 1