LAMMPS data file via write_data, version 5 Jun 2019, timestep = 11000000

7349 atoms
5 atom types
4899 bonds
2 bond types
2451 angles
2 angle types
1 impropers
1 improper types

1.5519297081455363e-01 4.1845807029189409e+01 xlo xhi
1.5469297081455124e-01 4.1845307029189406e+01 ylo yhi
1.5469297081455124e-01 4.1845307029189406e+01 zlo zhi

#Masses
#
#1 12.01
#2 40.08
#3 1.01
#4 16
#5 16
#
#Bond Coeffs # harmonic
#
#1 20.4246 1.3042
#2 22.965 1.012

Atoms # full

3955 1319 3 4.0999999999999998e-01 5.5180608244945217e-01 3.7312288525463098e+00 1.5576993122301857e+00 1 0 2
4552 1518 3 4.0999999999999998e-01 4.2795237013960303e+00 8.7898472814929445e+00 5.6143874204082822e+00 1 1 -1
4871 1624 4 -8.1999999999999995e-01 6.8968772683191126e+00 7.4233598119298829e+00 2.6772745911612663e+00 0 -1 2
4534 1512 3 4.0999999999999998e-01 8.4758231311446455e+00 2.0231485398406788e+00 6.5906771632197092e+00 2 0 -1
6288 2096 3 4.0999999999999998e-01 3.3572963208393025e+00 8.1569354876795650e+00 9.2505988403967603e+00 0 0 4
6286 2096 3 4.0999999999999998e-01 4.5492303443590467e+00 8.3895806760609517e+00 1.0353058065358606e+01 0 0 4
4354 1452 3 4.0999999999999998e-01 3.5965960824391350e+00 1.4583032939142668e+00 1.0188658973832059e+01 -1 0 2
2430 810 3 4.0999999999999998e-01 1.5409012983468202e+00 4.0798270051496663e+00 3.1717578216001616e+00 -2 1 -1
7231 2411 3 4.0999999999999998e-01 9.1814202714972613e+00 9.9316820469806331e+00 4.9490643293089818e+00 2 1 -2
700 234 3 4.0999999999999998e-01 4.9200073436843184e+00 4.3555047256024952e+00 3.0021240665470994e-01 0 0 0
6911 2304 4 -8.1999999999999995e-01 4.2270981772934704e+00 4.9296798008919902e+00 6.7734227063155350e+00 1 3 1
640 214 3 4.0999999999999998e-01 7.6962992009944049e+00 8.2823689270587197e-01 3.3500059355809131e+00 -3 0 0
3526 1176 3 4.0999999999999998e-01 3.8702593742326128e+00 5.0183183111796836e+00 4.2550475513910389e+00 -3 1 0
701 234 4 -8.1999999999999995e-01 4.7027790053145901e+00 4.0013033151342983e+00 1.2049420909454507e+00 0 0 0
3908 1303 4 -8.1999999999999995e-01 3.3626449972575628e-01 6.4698821418159558e-01 8.5348656251077450e+00 1 2 -2
4791 1597 3 4.0999999999999998e-01 9.1183061376708707e+00 8.6604377121007587e+00 7.8472801482054122e-01 0 0 1
4847 1616 4 -8.1999999999999995e-01 8.8982423728574958e+00 1.0039664617756562e+01 8.5811185494108759e+00 -1 2 -1
1412 471 4 -8.1999999999999995e-01 7.7350353727942531e+00 7.2862385592677725e+00 5.2739847355640075e+00 -3 -2 2
7232 2411 4 -8.1999999999999995e-01 9.7673501831335496e+00 1.0381652105997272e+01 5.7019684246988840e+00 2 1 -2
1532 511 4 -8.1999999999999995e-01 2.9399520264931271e+00 7.5608033312124912e+00 2.7341618505013447e+00 1 0 -2
1206 402 3 4.0999999999999998e-01 5.7005891088403109e+00 2.7845108580989555e+00 4.2211206985113989e+00 0 1 3
1026 342 3 4.0999999999999998e-01 9.0140925105111105e+00 6.0388410496811922e+00 5.0014289280793705e+00 3 2 0
1533 511 3 4.0999999999999998e-01 2.5863267104650607e+00 6.6926908898894792e+00 3.1609621364065501e+00 1 0 -2
1394 465 4 -8.1999999999999995e-01 9.4525033951416759e+00 4.2182505207563530e+00 2.7381631166172027e+00 -1 1 -1
7251 2417 3 4.0999999999999998e-01 7.8778615436070556e+00 1.3139674755862927e+00 1.0073685567404011e+01 -2 2 2
4536 1512 3 4.0999999999999998e-01 8.5403921036152219e+00 4.2016498105969952e-01 7.0518695507432101e+00 2 0 -1
5102 1701 4 -8.1999999999999995e-01 3.6406755800633586e+00 1.4368121081273424e+00 4.3110498153933541e-01 2 4 0
6812 2271 4 -8.1999999999999995e-01 4.2384783611624552e+00 8.5207542150054816e-01 6.5602090350453599e+00 1 0 4
511 171 3 4.0999999999999998e-01 1.0543411925019619e+01 6.4495493355145843e+00 8.5614258925748086e+00 -1 3 -1
4535 1512 4 -8.1999999999999995e-01 8.9613065125389078e+00 1.1481676954818754e+00 6.4537905583376993e+00 2 0 -1
1393 465 3 4.0999999999999998e-01 1.0505169789431990e+01 4.2700302605350986e+00 2.5587412702022365e+00 -1 1 -1
1413 471 3 4.0999999999999998e-01 7.3451981266830249e+00 7.4789266168488453e+00 4.3129099173150838e+00 -3 -2 2
4721 1574 4 -8.1999999999999995e-01 6.7521140855695458e+00 4.7382852496257337e+00 2.9433298398753993e+00 3 -1 2
3409 1137 3 4.0999999999999998e-01 5.5540136376679436e+00 8.7056875258970461e+00 2.1334431446351751e+00 -2 5 -1
985 329 3 4.0999999999999998e-01 8.8677437338517890e+00 8.4616965784799678e+00 8.2144646047478158e+00 2 -2 1
4720 1574 3 4.0999999999999998e-01 6.2705909149736900e+00 4.1556357582104759e+00 2.2644746849367268e+00 3 -1 2
4553 1518 4 -8.1999999999999995e-01 3.5832230307399224e+00 9.2627554869431385e+00 4.9303601444722691e+00 1 1 -1
4722 1574 3 4.0999999999999998e-01 7.7888901628044769e+00 4.7102305285140877e+00 2.8315416711052221e+00 3 -1 2
1793 598 4 -8.1999999999999995e-01 5.2785963512969749e+00 7.6844689200675225e+00 6.5872899051734262e+00 1 -1 -3
1794 598 3 4.0999999999999998e-01 5.4411287955304593e+00 8.1260032693853681e+00 7.4401597978617442e+00 1 -1 -3
4872 1624 3 4.0999999999999998e-01 7.5855787760444633e+00 7.4660431266651743e+00 1.9266712945447628e+00 0 -1 2
4167 1389 3 4.0999999999999998e-01 3.7830957892965205e+00 1.0337231589021959e+01 8.6661204784490984e+00 4 -2 0
642 214 3 4.0999999999999998e-01 8.7100057291349184e+00 9.8939706028999563e-01 4.6605934532651645e+00 -3 0 0
5891 1964 4 -8.1999999999999995e-01 5.9719984582585779e+00 6.3596373572674259e-01 3.5030436965993075e+00 1 1 0
4802 1601 4 -8.1999999999999995e-01 6.9281831435745556e+00 4.1774635860654028e+00 9.2839252984293825e+00 -1 -1 -1
6910 2304 3 4.0999999999999998e-01 4.4246879073882761e+00 4.0119481110404225e+00 6.3510575073958551e+00 1 3 1
702 234 3 4.0999999999999998e-01 4.2087227530731521e+00 3.0885967472832609e+00 1.0720673857644862e+00 0 0 0
5625 1875 3 4.0999999999999998e-01 1.3130185335633888e+00 2.6723559961262864e+00 6.5534639081729162e+00 1 1 0
1531 511 3 4.0999999999999998e-01 3.1791243706372687e+00 8.2303918799078826e+00 3.5181560525875200e+00 1 0 -2
3527 1176 4 -8.1999999999999995e-01 3.2774954949133317e+00 4.8608164296836787e+00 3.4492364413972232e+00 -3 1 0
4671 1557 3 4.0999999999999998e-01 2.7694950511955834e+00 7.3140016302031112e+00 1.0454331436109952e+00 -1 2 -3
5700 1900 3 4.0999999999999998e-01 3.2604619318711596e+00 1.9943046647515135e+00 7.3450693027687253e+00 1 0 0
2417 806 4 -8.1999999999999995e-01 4.2545566947595175e+00 3.3157361767280307e+00 9.8724550474462234e+00 -2 0 1
1046 349 4 -8.1999999999999995e-01 7.4079610818443493e+00 3.4339951266884920e+00 6.7402179875675943e+00 2 0 -3
1544 515 4 -8.1999999999999995e-01 2.4741490040819505e-01 5.3734094504351910e+00 5.8502796029119564e+00 2 0 2
3410 1137 4 -8.1999999999999995e-01 5.0826473121588442e+00 9.5448023201185848e+00 2.3365094070025814e+00 -2 5 -1
5129 1710 4 -8.1999999999999995e-01 1.3829409477534886e+00 8.0021433172090557e+00 5.6307944559018948e+00 1 0 -2
2428 810 3 4.0999999999999998e-01 9.8052728920116550e-01 2.8268101857765959e+00 3.9536251461862091e+00 -2 1 -1
6912 2304 3 4.0999999999999998e-01 3.3210198227969872e+00 4.8629551402495643e+00 7.2571761573002220e+00 1 3 1
1545 515 3 4.0999999999999998e-01 5.3025806210390791e-01 6.2305382678605792e+00 5.4407657791538035e+00 2 0 2
1411 471 3 4.0999999999999998e-01 6.8828726263867281e+00 7.3847602180323149e+00 5.8650875396307898e+00 -3 -2 2
3431 1144 4 -8.1999999999999995e-01 1.3382374423957042e+00 7.4806747063819694e+00 8.6858643025765598e+00 -1 2 -1
5767 1923 3 4.0999999999999998e-01 7.5192602560166453e+00 9.7485912717196701e+00 3.2307833773470414e+00 3 -1 -3
5698 1900 3 4.0999999999999998e-01 3.1149035745168869e+00 2.9563076305374074e+00 8.4634450646350210e+00 1 0 0
5130 1710 3 4.0999999999999998e-01 2.2113545320332548e+00 8.6037226547051446e+00 5.3261708178781983e+00 1 0 -2
1792 598 3 4.0999999999999998e-01 4.9137657429013197e+00 6.7147721972583350e+00 6.7434284855454800e+00 1 -1 -3
2361 787 3 4.0999999999999998e-01 9.7123003519880129e+00 9.8524083960250373e+00 2.1672533876066060e+00 -4 -2 0
5128 1710 3 4.0999999999999998e-01 1.4919558313418104e+00 7.7312426906562424e+00 6.5999406991746321e+00 1 0 -2
7233 2411 3 4.0999999999999998e-01 9.5772114877208345e+00 1.0120742768935692e+01 6.6619096808758069e+00 2 1 -2
4554 1518 3 4.0999999999999998e-01 3.6090660214159067e+00 1.0292769301175483e+01 5.0475141004837667e+00 1 1 -1
1462 488 3 4.0999999999999998e-01 7.7796828126575361e+00 6.9898887609561999e+00 9.3872620823419588e+00 3 3 2
7250 2417 4 -8.1999999999999995e-01 8.3859634059329995e+00 2.1418274649770512e+00 1.0305825640425741e+01 -2 2 2
4790 1597 4 -8.1999999999999995e-01 8.3712633113322283e+00 8.0597719487638884e+00 4.3878432583561788e-01 0 0 1
6811 2271 3 4.0999999999999998e-01 5.1045879685725293e+00 3.3035496220810728e-01 6.8232508704964774e+00 1 0 4
3909 1303 3 4.0999999999999998e-01 4.1422319955376691e-01 1.1678310111822914e+00 9.4474297965674392e+00 1 2 -2
5733 1911 3 4.0999999999999998e-01 2.2165046140005171e+00 1.0531342037171823e+01 6.6295345747704026e-01 2 -1 0
4848 1616 3 4.0999999999999998e-01 9.7126116492695740e+00 1.0198427856415471e+01 9.2250550918011438e+00 -1 2 -1
1463 488 4 -8.1999999999999995e-01 7.4775276405633733e+00 6.6561931176574580e+00 1.0289211917097520e+01 3 3 2
3907 1303 3 4.0999999999999998e-01 9.1662108648279350e-01 1.1612316937870009e+00 7.8865392194080322e+00 1 2 -2
3432 1144 3 4.0999999999999998e-01 7.9087697536044721e-01 6.6905200892366192e+00 9.0773775602821090e+00 -1 2 -1
987 329 3 4.0999999999999998e-01 8.5492589556293037e+00 7.4378588998954633e+00 7.0151260085457769e+00 2 -2 1
5892 1964 3 4.0999999999999998e-01 5.1049162312944665e+00 9.6989677375475425e-01 3.2487925772697253e+00 1 1 0
2429 810 4 -8.1999999999999995e-01 1.1065628112413119e+00 3.1823782607004505e+00 3.0435602765611893e+00 -2 1 -1
1204 402 3 4.0999999999999998e-01 4.9674316818585682e+00 2.0515279261359498e+00 5.5580316593269368e+00 0 1 3
4801 1601 3 4.0999999999999998e-01 7.0616097948027408e+00 5.0905111027489500e+00 9.7462014270498738e+00 -1 -1 -1
5624 1875 4 -8.1999999999999995e-01 7.0980005142270719e-01 2.6910857116370357e+00 5.6786240904062035e+00 1 1 0
1422 474 3 4.0999999999999998e-01 1.2239711731513940e+00 1.6448407882229790e+00 2.1499108168347458e+00 1 2 1
2416 806 3 4.0999999999999998e-01 5.1528162484454727e+00 3.6835290172279742e+00 9.5151281621247801e+00 -2 0 1
1024 342 3 4.0999999999999998e-01 8.8903835525566475e+00 4.7214801260454422e+00 6.1545347852260228e+00 3 2 0
1395 465 3 4.0999999999999998e-01 9.2759138598961908e+00 4.5447236086421645e+00 3.6950146290935448e+00 -1 1 -1
5699 1900 4 -8.1999999999999995e-01 2.5359940277413600e+00 2.5391857320285602e+00 7.7483895463346597e+00 1 0 0
6287 2096 4 -8.1999999999999995e-01 3.9046466603716077e+00 8.9041455893799952e+00 9.7486283589282134e+00 0 0 4
986 329 4 -8.1999999999999995e-01 8.7904320177321491e+00 7.4594642769752246e+00 8.0101017365787648e+00 2 -2 1
1205 402 4 -8.1999999999999995e-01 5.3129351279517216e+00 2.9165510323704522e+00 5.1538356105637897e+00 0 1 3
4803 1601 3 4.0999999999999998e-01 7.7279375678203932e+00 3.6050638518347058e+00 9.5714005032735443e+00 -1 -1 -1
1045 349 3 4.0999999999999998e-01 6.5776846919328174e+00 3.5446595105343590e+00 6.1870333039620720e+00 2 0 -3
1421 474 4 -8.1999999999999995e-01 1.4205463000244833e+00 7.7208451270375744e-01 1.7242195685680501e+00 1 2 1
3430 1144 3 4.0999999999999998e-01 7.3258279578082641e-01 8.2444441843248644e+00 8.4707965990179463e+00 -1 2 -1
4870 1624 3 4.0999999999999998e-01 6.5590649537178152e+00 6.4756643147905280e+00 2.7762602891011943e+00 0 -1 2
3411 1137 3 4.0999999999999998e-01 4.6621055414480397e+00 9.6462911556554172e+00 3.2831059079287521e+00 -2 5 -1
1047 349 3 4.0999999999999998e-01 7.1889329798618276e+00 3.7467811950761556e+00 7.7046473455935169e+00 2 0 -3
3528 1176 3 4.0999999999999998e-01 3.8907725426638802e+00 4.4117849265337021e+00 2.7267641713905406e+00 -3 1 0
1025 342 4 -8.1999999999999995e-01 9.3668731594020525e+00 5.0718601399151853e+00 5.3258981603874727e+00 3 2 0
641 214 4 -8.1999999999999995e-01 8.6276976336130353e+00 6.9767928112859245e-01 3.6892880803822892e+00 -3 0 0
4580 1527 4 -8.1999999999999995e-01 6.6655184860256842e+00 2.6223716685180865e-01 9.2474540949741364e+00 -2 3 0
5768 1923 4 -8.1999999999999995e-01 8.4518597090473158e+00 1.0280081534362632e+01 3.1356890660540118e+00 3 -1 -3
5103 1701 3 4.0999999999999998e-01 2.7234817854821891e+00 1.3872803939046010e+00 8.8862320214465162e-01 2 4 0
1729 577 3 4.0999999999999998e-01 9.8835974644239624e+00 2.8000145170564181e+00 9.8294016260713608e+00 2 0 2
5623 1875 3 4.0999999999999998e-01 4.5383067693810175e-01 3.6754183705904095e+00 5.7002487008905671e+00 1 1 0
3956 1319 4 -8.1999999999999995e-01 3.5445149461823222e-01 4.0773585041798528e+00 6.1238046336693952e-01 1 0 2
826 276 3 4.0999999999999998e-01 3.0331365780140024e-01 1.0231095868880264e+01 5.3748121043231780e+00 1 -1 1
3465 1155 3 4.0999999999999998e-01 3.3392511538413694e-01 1.0558889267097191e+01 8.4536557023009760e+00 0 -1 0
2922 974 3 4.0999999999999998e-01 1.0505765467061726e+01 3.4973590033170782e-01 8.3150495877315205e+00 1 1 1
6813 2271 3 4.0999999999999998e-01 3.4369980420985340e+00 2.7509615833644052e-01 6.6478706940074277e+00 1 0 4
4581 1527 3 4.0999999999999998e-01 5.7003326019366041e+00 4.9055711729321122e-01 9.4568595069078576e+00 -2 3 0
5797 1933 3 4.0999999999999998e-01 7.2933894975230809e+00 9.5052346178905420e+00 1.6581622781183011e-01 3 3 1
7249 2417 3 4.0999999999999998e-01 7.6491633044533014e+00 2.6646510650211934e+00 1.0858445976943734e+01 -2 2 2
5404 1802 3 4.0999999999999998e-01 5.8633045808175561e+00 5.5624590530492721e+00 1.7032858810617757e+01 -2 0 2
6607 2203 3 4.0999999999999998e-01 5.3481015241836491e+00 7.9596423523799515e+00 1.6780587746276549e+01 0 -2 -2
5312 1771 4 -8.1999999999999995e-01 7.9859183930148117e+00 6.8221078178758363e+00 2.0525116240485108e+01 -1 2 1
2014 672 3 4.0999999999999998e-01 1.7150088888260235e+00 9.8945257359658747e+00 1.7316265010935894e+01 2 3 -1
4821 1607 3 4.0999999999999998e-01 3.0141990763711566e+00 5.4640429871202212e+00 1.7641131022690931e+01 2 1 -1
4408 1470 3 4.0999999999999998e-01 5.4047483789840367e+00 6.2464414262443668e-01 1.5717184061850483e+01 -1 -3 0
1453 485 3 4.0999999999999998e-01 9.7221483980461763e+00 1.3417229305866525e+00 1.3088429782843317e+01 3 2 1
2418 806 3 4.0999999999999998e-01 3.8817029060330217e+00 3.8939981602251525e+00 1.0611181677431397e+01 -2 0 1
1892 631 4 -8.1999999999999995e-01 4.4285266864337531e+00 3.5411379011992605e+00 2.0106811309344785e+01 2 2 0
3840 1280 3 4.0999999999999998e-01 7.1246026669200848e+00 7.1823807925598313e+00 1.5512519908939858e+01 0 1 1
6946 2316 3 4.0999999999999998e-01 8.2063117760382287e+00 1.2936427338190182e+00 1.8653432754978116e+01 0 1 -3
5908 1970 3 4.0999999999999998e-01 5.0651409638222340e+00 5.2280253268655166e+00 2.0183938012861073e+01 0 -1 -2
5406 1802 3 4.0999999999999998e-01 5.5272778410417498e+00 4.2601615950277312e+00 1.7943498911544939e+01 -2 0 2
3839 1280 4 -8.1999999999999995e-01 7.6384420240172721e+00 6.9404945817017163e+00 1.4636697737993678e+01 0 1 1
1428 476 3 4.0999999999999998e-01 8.8407231436312514e+00 3.9159452573401166e-01 1.1259284826420142e+01 -3 5 2
1078 360 3 4.0999999999999998e-01 1.0212834754276580e+01 8.4244293784172761e+00 1.5126102279777616e+01 0 -2 -1
6294 2098 3 4.0999999999999998e-01 3.5505410815450184e-01 3.0039282013733493e+00 1.0989637289891032e+01 -1 0 -1
4819 1607 3 4.0999999999999998e-01 2.3136177746823376e+00 4.7582183043347506e+00 1.6392033071633161e+01 2 1 -1
1782 594 3 4.0999999999999998e-01 3.8971728478191663e+00 1.0300300222667484e+01 1.7300597152665578e+01 0 3 -2
6086 2029 4 -8.1999999999999995e-01 6.4941012153696267e+00 2.7535889512161518e+00 1.2206780805431084e+01 -2 1 0
4881 1627 3 4.0999999999999998e-01 1.1692825037481260e+00 7.2348603290169242e+00 1.3167273819398305e+01 -2 -2 -1
6136 2046 3 4.0999999999999998e-01 5.4784083957724734e+00 4.3372765342716297e+00 1.5266409272347895e+01 1 -2 -1
7230 2410 3 4.0999999999999998e-01 6.0172296795934868e+00 7.0979990735980776e+00 1.0845356394772299e+01 2 2 0
4683 1561 3 4.0999999999999998e-01 1.2444566314810508e+00 2.8322490514056833e+00 2.0955187955019746e+01 0 1 1
4897 1633 3 4.0999999999999998e-01 2.6498356538795651e+00 4.8705697138130226e+00 1.3264706074357616e+01 -1 -1 0
5311 1771 3 4.0999999999999998e-01 8.4228790382677357e+00 5.9347723643175110e+00 2.0661787674914127e+01 -1 2 1
4820 1607 4 -8.1999999999999995e-01 2.6529353023656830e+00 4.5136544187842809e+00 1.7338557457984862e+01 2 1 -1
2016 672 3 4.0999999999999998e-01 1.5668063425637992e+00 9.6280390543531684e+00 1.8964099366158120e+01 2 3 -1
3074 1025 4 -8.1999999999999995e-01 8.2035775217123224e+00 3.9883887124613731e+00 1.4243500673159721e+01 0 2 -2
6609 2203 3 4.0999999999999998e-01 6.7057837109137015e+00 7.9207636519293523e+00 1.7748537586353923e+01 0 -2 -2
6044 2015 4 -8.1999999999999995e-01 2.1068670288763243e+00 7.6179097667623790e+00 1.4668518614986185e+01 3 2 1
6075 2025 3 4.0999999999999998e-01 1.4196775096710617e+00 6.1906330031521328e+00 1.9294587304623313e+01 0 0 -1
7334 2445 4 -8.1999999999999995e-01 8.9458859445876868e+00 4.3006781768958575e+00 2.0925370963952499e+01 0 2 -2
1377 459 3 4.0999999999999998e-01 2.7443052714592620e+00 8.0055896578990762e+00 1.7811701119462487e+01 -3 2 -2
3021 1007 3 4.0999999999999998e-01 1.0256477374086339e+00 2.5853993415416046e+00 1.4989057774812130e+01 2 0 1
4355 1452 4 -8.1999999999999995e-01 3.7130384044795020e+00 5.3075003989439906e-01 1.0719455245108865e+01 -1 0 2
6074 2025 4 -8.1999999999999995e-01 1.6093791410434755e+00 5.6817951507412454e+00 2.0171345859183614e+01 0 0 -1
3298 1100 3 4.0999999999999998e-01 1.0254312282566726e+01 6.3797809531513590e+00 1.1987747556738194e+01 -1 0 -1
3019 1007 3 4.0999999999999998e-01 2.3863363871980909e+00 1.9781072613566999e+00 1.5784348076837585e+01 2 0 1
218 73 4 -8.1999999999999995e-01 6.7485577806702608e+00 9.0808236028063281e+00 1.2926231811019866e+01 1 -1 1
2614 872 3 4.0999999999999998e-01 9.2076551959066624e+00 2.4479192382252046e+00 1.7983527916987395e+01 -1 -1 -2
7228 2410 3 4.0999999999999998e-01 5.4455045083931495e+00 7.9595192530554577e+00 1.2197962263883012e+01 2 2 0
2164 722 3 4.0999999999999998e-01 1.0364979850615837e+01 8.0418417995870701e+00 1.6945873875053728e+01 0 -1 -1
2577 859 3 4.0999999999999998e-01 3.0549493825567087e+00 2.9461843606234646e+00 1.7550725553795523e+01 2 3 1
4410 1470 3 4.0999999999999998e-01 4.6902563322717494e+00 9.8504726133996268e-01 1.7061640970620680e+01 -1 -3 0
5909 1970 4 -8.1999999999999995e-01 5.2967897061809595e+00 6.2350128104703169e+00 2.0358590026061947e+01 0 -1 -2
4880 1627 4 -8.1999999999999995e-01 8.7846542386638471e-01 6.9719224186938975e+00 1.2209656565680564e+01 -2 -2 -1
4409 1470 4 -8.1999999999999995e-01 5.4744015681873242e+00 4.2346835018439771e-01 1.6703139599860478e+01 -1 -3 0
2616 872 3 4.0999999999999998e-01 1.0239279999587046e+01 1.3067210011132251e+00 1.7399711104218170e+01 -1 -1 -2
6043 2015 3 4.0999999999999998e-01 2.3382467066158226e+00 6.6022848016602751e+00 1.4607946071215160e+01 3 2 1
6503 2168 4 -8.1999999999999995e-01 4.2235792099603211e+00 9.1768676185051028e+00 1.4143534240145344e+01 3 -2 -3
6502 2168 3 4.0999999999999998e-01 4.4366437461303834e+00 9.6252798686114165e+00 1.5145863142173127e+01 3 -2 -3
3075 1025 3 4.0999999999999998e-01 8.7523875955798918e+00 4.0814194144733236e+00 1.3412155532913506e+01 0 2 -2
217 73 3 4.0999999999999998e-01 7.4626929422604338e+00 9.8043796259439429e+00 1.2676459558819614e+01 1 -1 1
6299 2100 4 -8.1999999999999995e-01 2.8480816340351307e+00 5.3823595471029302e+00 1.1613152060543358e+01 2 -1 1
219 73 3 4.0999999999999998e-01 7.1820801999171655e+00 8.2411239509812191e+00 1.3189721707058666e+01 1 -1 1
1781 594 4 -8.1999999999999995e-01 4.5699145065246771e+00 1.0256382971149291e+01 1.6523667844380359e+01 0 3 -2
3300 1100 3 4.0999999999999998e-01 9.8630319623061542e+00 7.8592010461643342e+00 1.2580158381065392e+01 -1 0 -1
3073 1025 3 4.0999999999999998e-01 7.2980797480086590e+00 3.6790274742816145e+00 1.3983995535158728e+01 0 2 -2
4681 1561 3 4.0999999999999998e-01 9.8185230107771793e-01 2.4406245201538916e+00 1.9384332971838532e+01 0 1 1
1376 459 4 -8.1999999999999995e-01 3.3898899510683447e+00 7.1513035306213588e+00 1.7810278254844636e+01 -3 2 -2
3020 1007 4 -8.1999999999999995e-01 1.9461281422193604e+00 2.1761090325225512e+00 1.4835317735775323e+01 2 0 1
4898 1633 4 -8.1999999999999995e-01 2.5992585810289470e+00 4.8795209870798741e+00 1.4258034783747547e+01 -1 -1 0
6947 2316 4 -8.1999999999999995e-01 7.1554188008101995e+00 1.2644630649298383e+00 1.8704703781883989e+01 0 1 -3
3299 1100 4 -8.1999999999999995e-01 9.6919704201853847e+00 7.2248071104991256e+00 1.1815300943851319e+01 -1 0 -1
5313 1771 3 4.0999999999999998e-01 6.9807312329454296e+00 6.6831138194666107e+00 2.0397179592886996e+01 -1 2 1
4899 1633 3 4.0999999999999998e-01 2.4423533062993266e+00 3.9444954111157982e+00 1.4419943601824141e+01 -1 -1 0
3226 1076 3 4.0999999999999998e-01 8.8284931797835178e+00 4.3357778162810190e+00 1.6228112180474326e+01 0 -1 1
1375 459 3 4.0999999999999998e-01 4.1161896590919920e+00 7.2138691753009727e+00 1.8544923050279834e+01 -3 2 -2
3838 1280 3 4.0999999999999998e-01 7.5112260088494294e+00 5.9708508096989332e+00 1.4390343804199498e+01 0 1 1
6504 2168 3 4.0999999999999998e-01 5.1003004556597062e+00 8.9614330815164962e+00 1.3668273638993876e+01 3 -2 -3
6138 2046 3 4.0999999999999998e-01 4.3005537689968483e+00 4.3985761679827453e+00 1.4090446373364429e+01 1 -2 -1
1891 631 3 4.0999999999999998e-01 4.8293304449384857e+00 2.6342111951732332e+00 2.0100245219867677e+01 2 2 0
285 95 3 4.0999999999999998e-01 2.2514369741001934e+00 1.0538504365263928e+00 1.3527494492318024e+01 0 3 4
6087 2029 3 4.0999999999999998e-01 5.9654446122325204e+00 3.5499899525936676e+00 1.2649222757839070e+01 -2 1 0
6085 2029 3 4.0999999999999998e-01 5.9659901801583857e+00 1.8816703355103375e+00 1.2431560636641333e+01 -2 1 0
4356 1452 3 4.0999999999999998e-01 3.0203784158873663e+00 4.6053985844819012e-01 1.1501458191451706e+01 -1 0 2
5405 1802 4 -8.1999999999999995e-01 5.7359554290044859e+00 4.5715238064162591e+00 1.7005168711627071e+01 -2 0 2
3228 1076 3 4.0999999999999998e-01 7.7019066036620956e+00 4.1476976129442233e+00 1.7459287993885617e+01 0 -1 1
2576 859 4 -8.1999999999999995e-01 3.3043437779533491e+00 1.9090440148917873e+00 1.7436579028836427e+01 2 3 1
4568 1523 4 -8.1999999999999995e-01 4.0495632872725451e-01 1.3688951433014676e+00 1.8524686307964153e+01 1 -4 -1
258 86 3 4.0999999999999998e-01 9.2647967615296896e+00 8.9664247864837030e+00 1.8449440110233269e+01 -1 -1 -2
6045 2015 3 4.0999999999999998e-01 2.9302154763741899e+00 8.1706996548951469e+00 1.4388606654620979e+01 3 2 1
6137 2046 4 -8.1999999999999995e-01 5.2633635964076833e+00 4.1914548402218239e+00 1.4240356516453506e+01 1 -2 -1
1454 485 4 -8.1999999999999995e-01 1.0269442577565151e+01 1.9594307237797448e+00 1.3707054054723917e+01 3 2 1
7229 2410 4 -8.1999999999999995e-01 5.1844600502529747e+00 7.3293991716813300e+00 1.1492850947549101e+01 2 2 0
3044 1015 4 -8.1999999999999995e-01 2.2245117842322912e-01 9.6983019086337201e+00 2.0113092524179592e+01 1 2 2
2575 859 3 4.0999999999999998e-01 2.7309714859877432e+00 1.4859905680956909e+00 1.8180101151568543e+01 2 3 1
6156 2052 3 4.0999999999999998e-01 2.0010931712272146e+00 8.6604882818266322e+00 2.0682961463983485e+01 -2 1 4
6608 2203 4 -8.1999999999999995e-01 6.2272349029797809e+00 7.4492539361280921e+00 1.6993684691496789e+01 0 -2 -2
2015 672 4 -8.1999999999999995e-01 2.2602007151903405e+00 9.6218326222750434e+00 1.8137807283786092e+01 2 3 -1
2615 872 4 -8.1999999999999995e-01 9.8512227041304765e+00 1.7033676584903612e+00 1.8326742036168390e+01 -1 -1 -2
1427 476 4 -8.1999999999999995e-01 9.1229209449500228e+00 2.1189491588510664e-01 1.2223670786840351e+01 -3 5 2
3227 1076 4 -8.1999999999999995e-01 8.5589529203788537e+00 3.7872699597179769e+00 1.7054469696928695e+01 0 -1 1
5346 1782 3 4.0999999999999998e-01 4.5115605093156480e-01 6.6894583548821913e+00 1.5602129423295247e+01 2 1 0
256 86 3 4.0999999999999998e-01 8.6745705145304637e+00 7.4234590941765832e+00 1.8429244811671300e+01 -1 -1 -2
6948 2316 3 4.0999999999999998e-01 6.7832780038143259e+00 1.0339051878808636e+00 1.7761322288005662e+01 0 1 -3
3202 1068 3 4.0999999999999998e-01 6.9619334400647999e+00 1.7199398140255895e+00 2.0714584518545642e+01 0 3 1
257 86 4 -8.1999999999999995e-01 9.2261686350313852e+00 8.1342978745371184e+00 1.7930472314093553e+01 -1 -1 -2
6073 2025 3 4.0999999999999998e-01 1.8051070032443226e+00 4.7318695141868794e+00 1.9882758068411029e+01 0 0 -1
1464 488 3 4.0999999999999998e-01 8.1317548767155152e+00 6.8636806161071640e+00 1.1035451052972009e+01 3 3 2
1080 360 3 4.0999999999999998e-01 8.8136868860426123e+00 8.0015673715511735e+00 1.4440753313085835e+01 0 -2 -1
6300 2100 3 4.0999999999999998e-01 3.6610047421474561e+00 5.9460887339649489e+00 1.1415189996974798e+01 2 -1 1
1893 631 3 4.0999999999999998e-01 3.4374061171191697e+00 3.4832479040443314e+00 2.0405008552296003e+01 2 2 0
2815 939 3 4.0999999999999998e-01 3.8704779768675621e+00 1.0242843173060253e+01 1.3090297513882888e+01 -2 1 2
4682 1561 4 -8.1999999999999995e-01 1.6415758331214578e+00 3.0084104354033028e+00 2.0015098192874763e+01 0 1 1
284 95 4 -8.1999999999999995e-01 2.6643810587707737e+00 1.5636568600891729e-01 1.3162692472353072e+01 0 3 4
5465 1822 4 -8.1999999999999995e-01 5.4241796469056816e+00 4.9000977661534906e-01 1.3798428096537156e+01 1 -1 -1
5260 1754 3 4.0999999999999998e-01 1.0118869525733118e+01 4.8693990167386758e+00 1.9866498899099081e+01 3 3 -1
6298 2100 3 4.0999999999999998e-01 2.0299737003207863e+00 6.0405220116468312e+00 1.1771238043998631e+01 2 -1 1
6154 2052 3 4.0999999999999998e-01 2.1779572276107726e+00 7.0665784501528677e+00 2.0944181556914813e+01 -2 1 4
1455 485 3 4.0999999999999998e-01 9.5378713931764416e+00 2.5134485206105297e+00 1.4169606010681465e+01 3 2 1
4567 1523 3 4.0999999999999998e-01 6.3479563101091763e-01 3.8952842861224629e-01 1.8645950132958546e+01 1 -4 -1
6293 2098 4 -8.1999999999999995e-01 6.3585971050606860e-01 2.0341594079719347e+00 1.1055547789373280e+01 -1 0 -1
1079 360 4 -8.1999999999999995e-01 9.6635451553588503e+00 8.5069172821880361e+00 1.4222451358409799e+01 0 -2 -1
6753 2251 3 4.0999999999999998e-01 1.0055185704629729e+01 2.1485850915755875e-01 1.9402916873493826e+01 1 1 3
1780 594 3 4.0999999999999998e-01 5.5963257285391945e+00 1.0350663443590159e+01 1.6736985218234107e+01 0 3 -2
3924 1308 3 4.0999999999999998e-01 1.6101107962399752e+00 5.4901262858032034e+00 2.9157618869489170e+01 -1 1 -1
4309 1437 3 4.0999999999999998e-01 1.0491987398890195e+01 8.0856361745019312e-01 2.4415838155189245e+01 1 1 -1
6187 2063 3 4.0999999999999998e-01 8.0462522163043690e+00 2.3348664650975284e+00 2.7500626486696298e+01 0 1 -1
5764 1922 3 4.0999999999999998e-01 2.5980414004224550e+00 1.0321466393633603e+01 2.9012872486028325e+01 0 -2 0
193 65 3 4.0999999999999998e-01 3.6645721495840569e+00 5.3693271445714585e-01 2.3543559872583089e+01 2 3 0
7316 2439 4 -8.1999999999999995e-01 8.8489910380338550e+00 8.1347458545014977e+00 2.6476526453778916e+01 2 0 -1
6806 2269 4 -8.1999999999999995e-01 1.0153639768644863e+01 5.4911014003477110e+00 2.7359719317734541e+01 0 1 0
3923 1308 4 -8.1999999999999995e-01 2.5976682205343353e+00 5.2184784527300838e+00 2.8937968007211090e+01 -1 1 -1
4625 1542 4 -8.1999999999999995e-01 4.9339311189879265e+00 7.1246698789097413e+00 2.5391609870888566e+01 3 1 0
3922 1308 3 4.0999999999999998e-01 3.1781367864061618e+00 6.0797958436139279e+00 2.8806440055538310e+01 -1 1 -1
6478 2160 3 4.0999999999999998e-01 7.3316849619211899e-01 9.0262393606394813e+00 2.5030224332869636e+01 -3 0 -3
2454 818 3 4.0999999999999998e-01 5.3557428955901969e+00 2.4747521917279469e+00 3.0787986474801883e+01 1 0 0
287 96 4 -8.1999999999999995e-01 5.1570510131278784e+00 3.0295959824250658e+00 2.3612070688240390e+01 1 -3 -2
6302 2101 4 -8.1999999999999995e-01 6.8302421610910038e+00 5.2999928305954276e+00 2.6389260835688575e+01 -1 -2 0
5910 1970 3 4.0999999999999998e-01 4.9470728157126107e+00 6.3880441426390080e+00 2.1327345083435553e+01 0 -1 -2
5751 1917 3 4.0999999999999998e-01 1.2380409327866266e+00 5.6818326140304256e+00 2.1700167845839186e+01 1 2 1
4296 1432 3 4.0999999999999998e-01 5.6595529380715481e+00 2.3212720720430386e+00 2.8103160843533701e+01 2 2 3
3175 1059 3 4.0999999999999998e-01 7.5474493795954833e+00 5.5155619191874816e+00 2.4694184054918608e+01 2 -2 -4
5045 1682 4 -8.1999999999999995e-01 6.4175864418457778e+00 1.0126220497858140e+01 2.2841565127019884e+01 -3 -2 1
5089 1697 3 4.0999999999999998e-01 5.7842039834686965e+00 9.2183410827375880e+00 2.6040031351914894e+01 0 -2 -1
1201 401 3 4.0999999999999998e-01 9.7159400517944601e+00 9.1917145656989092e+00 2.2050833114451510e+01 1 0 0
4905 1635 3 4.0999999999999998e-01 2.6547953359970702e+00 4.2044869163818177e+00 2.5069750714672757e+01 -1 8 -4
6190 2064 3 4.0999999999999998e-01 7.9277438803370002e+00 1.0165368872264104e+01 2.9657868743966237e+01 4 0 -4
288 96 3 4.0999999999999998e-01 5.2933706998463270e+00 2.2125467176639395e+00 2.4218908523947977e+01 1 -3 -2
893 298 4 -8.1999999999999995e-01 1.2461709618115839e+00 1.5947196698485873e+00 2.2496786224508412e+01 -2 2 -2
6479 2160 4 -8.1999999999999995e-01 2.6315988003029434e-01 9.7756128432987150e+00 2.4454709710650132e+01 -3 0 -3
5046 1682 3 4.0999999999999998e-01 7.3731104945746413e+00 9.8636895632125867e+00 2.2455458213845851e+01 -3 -2 1
6744 2248 3 4.0999999999999998e-01 3.7323616356109173e+00 7.3701543136474212e-01 2.7701946918515684e+01 1 0 1
1666 556 3 4.0999999999999998e-01 8.9729788076142167e+00 3.7917983044106900e+00 3.0511467581262536e+01 0 -1 0
4149 1383 3 4.0999999999999998e-01 4.7804553417298887e+00 1.0433377707135300e+01 2.1429356148024112e+01 -2 6 0
5285 1762 4 -8.1999999999999995e-01 3.8215425505297618e+00 3.3483650041637789e+00 3.0779119525916094e+01 1 -2 -2
5486 1829 4 -8.1999999999999995e-01 3.9241387663295026e+00 9.1629842827126851e+00 2.9922676400170729e+01 1 -3 -1