LAMMPS data file via write_data, version 5 Jun 2019, timestep = 8000000

7349 atoms
5 atom types
4899 bonds
2 bond types
2451 angles
2 angle types
1 impropers
1 improper types

1.5519297081455363e-01 4.1845807029189409e+01 xlo xhi
1.5469297081455124e-01 4.1845307029189406e+01 ylo yhi
1.5469297081455124e-01 4.1845307029189406e+01 zlo zhi

#Masses
#
#1 12.01
#2 40.08
#3 1.01
#4 16
#5 16
#
#Bond Coeffs # harmonic
#
#1 20.4246 1.3042
#2 22.965 1.012

Atoms # full

3477 1159 3 4.0999999999999998e-01 3.0722320028732621e+00 5.4764078223379045e+00 2.7669260360388805e+00 2 -2 2
4485 1495 3 4.0999999999999998e-01 9.1703556985957437e+00 5.4565556157607844e+00 3.4830591729863709e+00 1 2 1
3804 1268 3 4.0999999999999998e-01 1.0432122320735441e+01 5.0037015562753107e+00 6.1821235338518010e-01 1 2 2
3551 1184 4 -8.1999999999999995e-01 5.3899684723688788e+00 9.6538783068228256e+00 4.7250500891659897e+00 2 1 0
2580 860 3 4.0999999999999998e-01 9.0976778006068182e-01 4.3361573116653700e+00 5.9252118275823156e+00 -1 3 2
5525 1842 4 -8.1999999999999995e-01 6.7304151694341350e+00 5.8797051867527967e+00 2.4780042835314111e+00 2 1 -1
2285 762 4 -8.1999999999999995e-01 5.1060938469789416e+00 7.1143124037358776e+00 4.1738939108149014e+00 2 1 2
4232 1411 4 -8.1999999999999995e-01 2.6841514862535729e+00 9.6534044829596688e-01 6.7450472634324452e+00 0 -2 4
6953 2318 4 -8.1999999999999995e-01 7.3101802059668044e+00 3.8865474148311825e+00 7.8459746893970141e+00 1 -2 -1
4328 1443 4 -8.1999999999999995e-01 8.3600489399122040e+00 7.1254239955314249e+00 6.4681831356476760e-01 -4 0 -2
280 94 3 4.0999999999999998e-01 1.0378601667974511e+01 9.0942176215089898e-01 6.6072420125945870e+00 2 0 1
5967 1989 3 4.0999999999999998e-01 2.8529542894286775e+00 1.0297433875756257e+01 1.0007231538607822e+01 2 2 0
3552 1184 3 4.0999999999999998e-01 4.3912900232752072e+00 9.8299094974458310e+00 4.9538580959529197e+00 2 1 0
6874 2292 3 4.0999999999999998e-01 4.0925769989348542e+00 4.7296300494117487e+00 9.7334540795020530e-01 0 2 1
2696 899 4 -8.1999999999999995e-01 6.7317635613101050e+00 5.3297954994767096e+00 5.4715290917318296e+00 0 0 -1
737 246 4 -8.1999999999999995e-01 2.9240409897078936e+00 7.5570141096750811e+00 8.6813666266167768e+00 1 -1 -2
2809 937 3 4.0999999999999998e-01 8.5048130678263263e+00 1.0194140762353960e+00 1.0418669390363120e+00 0 -1 -1
4853 1618 4 -8.1999999999999995e-01 9.6433707623832845e+00 2.1313348664720699e+00 3.6886499414668381e+00 -1 -4 0
2439 813 3 4.0999999999999998e-01 5.9558622851989451e+00 6.9514137473129072e+00 8.5742017029863540e+00 1 1 2
6888 2296 3 4.0999999999999998e-01 1.0552554843747313e+01 6.5417075470237851e+00 5.2592679567770642e+00 2 -4 5
736 246 3 4.0999999999999998e-01 1.9470358027845041e+00 7.3121278165413024e+00 8.3796812981037352e+00 1 -1 -2
211 71 3 4.0999999999999998e-01 9.5911899388457247e+00 5.8367852712222952e+00 7.0730646869450098e+00 0 0 0
4852 1618 3 4.0999999999999998e-01 9.4232768067587003e+00 1.4170866704556693e+00 2.9626467893154529e+00 -1 -4 0
6814 2272 3 4.0999999999999998e-01 5.1164877880622592e+00 7.0627286663337507e-01 8.8777359965022296e+00 0 1 4
6003 2001 3 4.0999999999999998e-01 1.0113106288419832e+01 9.5232722543148398e+00 7.9840603552909046e+00 3 0 4
2438 813 4 -8.1999999999999995e-01 6.6759139576692457e+00 7.5487897635699506e+00 8.2214523300693099e+00 1 1 2
5170 1724 3 4.0999999999999998e-01 7.7842040948237141e+00 1.0070844303413661e+01 7.0855801094628506e+00 0 -3 -3
4324 1442 3 4.0999999999999998e-01 9.8098848046711833e+00 9.9282582669418531e+00 6.3233741169733042e+00 1 -1 -2
5526 1842 3 4.0999999999999998e-01 6.1058154663833921e+00 6.4372480029241101e+00 3.1592569922178675e+00 2 1 -1
6133 2045 3 4.0999999999999998e-01 5.4647560887082749e+00 4.6469123142205131e+00 8.1435574215120923e+00 3 0 -2
4233 1411 3 4.0999999999999998e-01 3.0382059065653677e+00 1.5722318802009880e+00 5.9612432941091749e+00 0 -2 4
4231 1411 3 4.0999999999999998e-01 1.6999600306884126e+00 1.0758891237190722e+00 6.7479819117509257e+00 0 -2 4
3543 1181 3 4.0999999999999998e-01 2.5329547446725962e+00 1.9340847739647447e+00 3.9295126612011551e+00 1 -1 -1
232 78 3 4.0999999999999998e-01 6.5038245227959415e+00 2.7515791190986252e+00 3.4707577881587910e+00 2 2 1
6876 2292 3 4.0999999999999998e-01 4.5772359613917866e+00 3.5847388897570860e+00 2.0054407075670748e+00 0 2 1
212 71 4 -8.1999999999999995e-01 9.3691377117898860e+00 6.8502378573792475e+00 7.1789320420811098e+00 0 0 0
2284 762 3 4.0999999999999998e-01 4.1529611079352922e+00 6.8336332540807625e+00 3.9710356489389489e+00 2 1 2
5192 1731 4 -8.1999999999999995e-01 8.1385649680606935e+00 1.0366700051986426e+01 3.8494309005571323e+00 1 -3 3
7095 2365 3 4.0999999999999998e-01 5.3730353694214568e+00 5.6279880046234121e+00 9.9743334778641675e+00 3 -1 0
2578 860 3 4.0999999999999998e-01 3.9054737717083998e-01 4.2070003506377089e+00 4.3462679285743970e+00 -1 3 2
5025 1675 3 4.0999999999999998e-01 6.5076238986388457e+00 6.4217920811846241e-01 7.7081636602715635e+00 -1 2 0
4149 1383 3 4.0999999999999998e-01 3.3706543924536359e+00 1.0549021175022144e+01 7.0697282514662185e-01 -1 4 0
2695 899 3 4.0999999999999998e-01 5.9100600257578773e+00 5.9100256673435796e+00 5.1698754225819465e+00 0 0 -1
5081 1694 4 -8.1999999999999995e-01 5.5075422823937910e+00 1.4148644863637005e+00 1.0458031671705758e+01 1 1 3
4854 1618 3 4.0999999999999998e-01 9.6069516849880596e+00 1.6840870864238371e+00 4.6405843575295860e+00 -1 -4 0
5193 1731 3 4.0999999999999998e-01 8.1467689889962394e+00 9.8984210040581448e+00 2.9311321369200631e+00 1 -3 3
3377 1126 4 -8.1999999999999995e-01 2.4512173391573424e+00 4.0738834760586098e+00 8.6610761355356320e+00 1 -1 2
233 78 4 -8.1999999999999995e-01 7.1958970091920467e+00 3.2647946849524732e+00 4.0325251488069780e+00 2 2 1
3501 1167 3 4.0999999999999998e-01 4.5881947645976684e+00 2.4122104032554410e+00 3.5415280691970694e+00 2 -1 1
7339 2447 3 4.0999999999999998e-01 2.4122294578839854e+00 3.3906953697632467e+00 2.0748453841309331e+00 1 1 0
4403 1468 4 -8.1999999999999995e-01 3.6938589843662002e+00 6.3029104618249321e-01 9.0468645904357103e-01 -1 2 -2
6875 2292 4 -8.1999999999999995e-01 3.9689744301893208e+00 4.3923146095987038e+00 1.9294197318574808e+00 0 2 1
3542 1181 4 -8.1999999999999995e-01 3.1208681326444472e+00 2.5005046708364951e+00 4.5606664798068168e+00 1 -1 -1
6952 2318 3 4.0999999999999998e-01 8.2156762960534380e+00 3.8590841930744895e+00 8.3387459521080718e+00 1 -2 -1
738 246 3 4.0999999999999998e-01 3.6536845505694382e+00 6.8196702829413569e+00 8.4779477500462566e+00 1 -1 -2
4049 1350 4 -8.1999999999999995e-01 7.8859018713892146e+00 9.6698157848184874e+00 1.0848307501392402e+00 0 -1 2
6954 2318 3 4.0999999999999998e-01 7.4137986298657896e+00 4.3815068162918021e+00 6.9576059224881046e+00 1 -2 -1
5171 1724 4 -8.1999999999999995e-01 6.7270111782749149e+00 1.0025893613012435e+01 7.1113206994077656e+00 0 -3 -3
5023 1675 3 4.0999999999999998e-01 7.0442235220174165e+00 2.2331438594437771e+00 7.7614612363374631e+00 -1 2 0
3476 1159 4 -8.1999999999999995e-01 2.4549213623270436e+00 6.0259883792889184e+00 3.3796765960310018e+00 2 -2 2
4326 1442 3 4.0999999999999998e-01 9.2413225375271022e+00 9.6312598714564803e+00 4.8277958838613761e+00 1 -1 -2
281 94 4 -8.1999999999999995e-01 9.5519259724167185e+00 1.2426636864946092e+00 6.0970506819636539e+00 2 0 1
5088 1696 3 4.0999999999999998e-01 2.3220713331849714e+00 4.8776911583039890e+00 1.0346155311918260e+01 -2 0 0
4325 1442 4 -8.1999999999999995e-01 1.0044113248684688e+01 9.4124829528227583e+00 5.4262348330241883e+00 1 -1 -2
4925 1642 4 -8.1999999999999995e-01 6.6351938528087495e-01 8.1888396307316018e+00 2.6798901918481581e+00 0 -2 2
5024 1675 4 -8.1999999999999995e-01 7.2905718051673318e+00 1.2710317942991189e+00 7.4910355193520859e+00 -1 2 0
4327 1443 3 4.0999999999999998e-01 7.7715247277476873e+00 6.7646720462301344e+00 1.4244112707802934e+00 -4 0 -2
4048 1350 3 4.0999999999999998e-01 8.4283035115670408e+00 1.0040232147159157e+01 2.8727996012455892e-01 0 -1 2
5965 1989 3 4.0999999999999998e-01 3.5976723601724316e+00 8.9619750260803226e+00 9.4228299070113586e+00 2 2 0
4329 1443 3 4.0999999999999998e-01 8.2705877318931336e+00 8.1383916898628215e+00 6.9892111874524032e-01 -4 0 -2
5524 1842 3 4.0999999999999998e-01 6.6599050417620633e+00 4.9054150342831413e+00 2.7056898595494947e+00 2 1 -1
2437 813 3 4.0999999999999998e-01 7.5210424107612139e+00 7.0610793847224942e+00 8.1829093526253143e+00 1 1 2
2697 899 3 4.0999999999999998e-01 6.7239245700641019e+00 4.4360730819812577e+00 4.8742873810762681e+00 0 0 -1
4924 1642 3 4.0999999999999998e-01 1.2711102602811279e+00 7.3728714210902906e+00 2.9488362050787775e+00 0 -2 2
2579 860 4 -8.1999999999999995e-01 1.2122213436806415e+00 4.2645754656769972e+00 4.9666575205595889e+00 -1 3 2
6002 2001 4 -8.1999999999999995e-01 9.3434153853079724e+00 1.0217506043191126e+01 7.9270840450628492e+00 3 0 4
7340 2447 4 -8.1999999999999995e-01 1.8781287426671118e+00 2.5031102858071015e+00 1.9108908614605837e+00 1 1 0
5172 1724 3 4.0999999999999998e-01 6.5778705340922752e+00 9.1316051263443967e+00 7.5595801226828678e+00 0 -3 -3
4402 1468 3 4.0999999999999998e-01 3.0346173341026792e+00 1.3930230822020804e+00 8.0455246207338982e-01 -1 2 -2
7341 2447 3 4.0999999999999998e-01 1.1609564198654918e+00 2.5687410249212808e+00 1.1036981111197668e+00 1 1 0
3475 1159 3 4.0999999999999998e-01 2.0211801863786607e+00 5.3636060604107110e+00 4.0439513997715668e+00 2 -2 2
4926 1642 3 4.0999999999999998e-01 1.1333434643588869e+00 9.0641366440161164e+00 2.8902366306128449e+00 0 -2 2
3550 1184 3 4.0999999999999998e-01 5.9251088514358452e+00 9.7781259976641337e+00 5.5990808777275261e+00 2 1 0
6816 2272 3 4.0999999999999998e-01 4.0297997188741244e+00 4.1187322880261562e-01 7.7360963873510418e+00 0 1 4
4585 1529 3 4.0999999999999998e-01 6.6678919740064373e+00 3.5846443241956816e-01 3.4501421733772486e+00 -3 1 1
3255 1085 3 4.0999999999999998e-01 1.0080477118218241e+01 3.6656345688235534e+00 2.5792042633593795e+00 0 0 -2
282 94 3 4.0999999999999998e-01 8.8114117965184189e+00 1.4577957443722964e+00 6.7572338615326206e+00 2 0 1
234 78 3 4.0999999999999998e-01 8.1671371265322055e+00 2.9287017783980285e+00 3.9099483371965968e+00 2 2 1
3500 1167 4 -8.1999999999999995e-01 5.1399409952861790e+00 2.0904898017597353e+00 2.7888453764266643e+00 2 -1 1
2286 762 3 4.0999999999999998e-01 5.1912661881650557e+00 8.1334781134817664e+00 4.3961517418527647e+00 2 1 2
3574 1192 3 4.0999999999999998e-01 9.7019334187213797e+00 2.0799258878684621e+00 1.0150501300761080e+01 0 -1 2
4483 1495 3 4.0999999999999998e-01 8.2197410120559766e+00 5.7594474088317931e+00 4.8499519512201852e+00 1 2 1
3575 1192 4 -8.1999999999999995e-01 9.4900041753830351e+00 3.0951478721745289e+00 1.0180161725431986e+01 0 -1 2
4484 1495 4 -8.1999999999999995e-01 9.1617250569696882e+00 5.7413872435709852e+00 4.5414955649538298e+00 1 2 1
3376 1126 3 4.0999999999999998e-01 2.6364967454789601e+00 3.0639928672995760e+00 8.6532122187783642e+00 1 -1 2
2810 937 4 -8.1999999999999995e-01 8.4864222963593257e+00 4.3516124560823993e-01 1.9253363961141690e+00 0 -1 -1
6135 2045 3 4.0999999999999998e-01 3.9008913062392345e+00 4.9003060595117720e+00 8.5474715568979089e+00 3 0 -2
3499 1167 3 4.0999999999999998e-01 4.7051283803931181e+00 1.4723533795619483e+00 2.1443949036003436e+00 2 -1 1
6045 2015 3 4.0999999999999998e-01 1.0538560368610312e+01 7.7548272350613461e+00 7.6786410885838912e+00 2 2 0
3541 1181 3 4.0999999999999998e-01 2.5564653082313815e+00 3.3578723613503945e+00 4.7545530219923560e+00 1 -1 -1
2774 925 4 -8.1999999999999995e-01 1.0282082878664575e+01 4.3747041506300173e+00 7.2680382126246599e+00 -1 -1 0
3378 1126 3 4.0999999999999998e-01 1.5072696977199087e+00 4.1285897061114145e+00 8.4143152733914519e+00 1 -1 2
6134 2045 4 -8.1999999999999995e-01 4.7908491793318149e+00 5.4099664979043052e+00 8.4725621564782418e+00 3 0 -2
5966 1989 4 -8.1999999999999995e-01 3.7391428421176993e+00 9.8811555456131401e+00 9.8051379082153716e+00 2 2 0
4050 1350 3 4.0999999999999998e-01 7.1587793628219840e+00 1.0409149461337535e+01 1.2518883284815985e+00 0 -1 2
213 71 3 4.0999999999999998e-01 9.0340655511530930e+00 7.0059967149352156e+00 6.2259500565773926e+00 0 0 0
2890 964 3 4.0999999999999998e-01 1.3274328371139668e+00 2.9090291991140518e+00 1.3267124482486549e+01 -1 -1 0
6083 2028 4 -8.1999999999999995e-01 3.4848410891290454e-01 8.2602975583133222e+00 1.3690523804532518e+01 0 1 0
7094 2365 4 -8.1999999999999995e-01 5.9490433095477320e+00 5.8541609182888070e+00 1.0825711610706296e+01 3 -1 0
5082 1694 3 4.0999999999999998e-01 4.5289473891871852e+00 1.4407654518053254e+00 1.0781574866821202e+01 1 1 3
1452 484 3 4.0999999999999998e-01 1.0086499721817884e+01 5.0116634783569314e+00 1.2734248377375406e+01 0 1 -2
5639 1880 4 -8.1999999999999995e-01 3.8223956615200056e+00 6.6745589217691759e-01 1.9557559337321287e+01 0 0 -3
3256 1086 3 4.0999999999999998e-01 7.1573855966364697e-01 3.1823940485065578e+00 1.5787525223241046e+01 0 1 -3
617 206 4 -8.1999999999999995e-01 5.0863610687319749e+00 3.5577708909605366e+00 1.7346777345650857e+01 1 -1 -1
1056 352 3 4.0999999999999998e-01 1.1788242152120705e+00 6.7035008309572115e+00 1.1063433007473861e+01 0 0 -2
885 295 3 4.0999999999999998e-01 2.3799332784684974e+00 5.3819289938593871e+00 1.9439754634074841e+01 0 3 -2
6255 2085 3 4.0999999999999998e-01 2.3939376563955648e+00 9.6241953345209144e+00 1.6725637890809029e+01 -1 0 0
2295 765 3 4.0999999999999998e-01 3.4038678562753644e+00 6.4844039900628108e+00 1.2353862898270329e+01 0 3 -1
4736 1579 4 -8.1999999999999995e-01 1.0337530891507788e+01 2.2234779774370432e+00 1.9423925537280216e+01 -1 1 -2
5735 1912 4 -8.1999999999999995e-01 4.6114516112523898e+00 1.0080132991970736e+01 1.2249224290048822e+01 0 2 -2
5344 1782 3 4.0999999999999998e-01 2.9191470333444771e+00 1.4859802070975265e+00 1.4343569352547942e+01 2 1 0
5761 1921 3 4.0999999999999998e-01 9.0345689353924996e+00 3.8044199323040044e+00 1.6715888313778830e+01 0 2 -1
4112 1371 4 -8.1999999999999995e-01 5.1826037882829183e+00 8.4507547336572131e+00 1.9385681389061340e+01 1 0 2
2977 993 3 4.0999999999999998e-01 7.0658557920388976e+00 3.5214161997983835e+00 1.2599878454865003e+01 3 0 2
4855 1619 3 4.0999999999999998e-01 8.1678505198564135e+00 2.4058601866704299e+00 1.5103847932921552e+01 2 0 2
1055 352 4 -8.1999999999999995e-01 5.1427503017343101e-01 7.4893111023865373e+00 1.1102783923263488e+01 0 0 -2
6595 2199 3 4.0999999999999998e-01 7.1340411842312230e+00 7.3058117479504734e+00 1.5392292544264247e+01 2 -2 -1
4857 1619 3 4.0999999999999998e-01 9.1739853375777400e+00 3.6369644527908425e+00 1.4604399111627359e+01 2 0 2
1451 484 4 -8.1999999999999995e-01 9.8731042499899466e+00 5.2208148302246480e+00 1.3709196456339747e+01 0 1 -2
6623 2208 4 -8.1999999999999995e-01 2.2603275075025326e+00 1.5949686612070921e+00 1.7511112597826958e+01 0 0 1
6347 2116 4 -8.1999999999999995e-01 7.4929515790922716e+00 6.5581763881943056e+00 1.4020335947334862e+01 -1 0 1
6622 2208 3 4.0999999999999998e-01 1.2892183575556733e+00 1.6073795184393189e+00 1.7799810278991647e+01 0 0 1
1054 352 3 4.0999999999999998e-01 9.6728308638280813e-01 8.2789993934242521e+00 1.0674948085369707e+01 0 0 -2
4898 1633 4 -8.1999999999999995e-01 8.1485184336051528e+00 1.0513086208528618e+01 2.0369632110194928e+01 -2 0 2
6597 2199 3 4.0999999999999998e-01 7.3409173592692527e+00 7.9275858445063276e+00 1.6861136757340994e+01 2 -2 -1
1425 475 3 4.0999999999999998e-01 2.9863049068005751e+00 6.2077942383398863e+00 1.5843248783974193e+01 1 3 1
5577 1859 3 4.0999999999999998e-01 7.6972995718223354e+00 8.7652449814390323e+00 1.1447967445379316e+01 1 1 6
6348 2116 3 4.0999999999999998e-01 8.4550456212799823e+00 6.1246156149796249e+00 1.3870769468103580e+01 -1 0 1
7072 2358 3 4.0999999999999998e-01 9.6975642455791800e+00 8.1125382950859564e+00 1.1545407133494354e+01 3 0 3
24 8 3 4.0999999999999998e-01 2.7905306372881320e+00 2.9581818438279512e+00 1.8643245372403786e+01 5 0 2
6254 2085 4 -8.1999999999999995e-01 2.1457783445388068e+00 9.6484201474259379e+00 1.5726899475402249e+01 -1 0 0
3716 1239 4 -8.1999999999999995e-01 8.7886094971018238e+00 1.0504947540044380e+01 1.4276556413335534e+01 2 -3 1
4856 1619 4 -8.1999999999999995e-01 8.3517326315397558e+00 3.3888999539442244e+00 1.5122507072765973e+01 2 0 2
164 55 4 -8.1999999999999995e-01 9.3429949770509457e-01 1.0289089843727288e+01 1.0638038309380244e+01 3 2 1
5087 1696 4 -8.1999999999999995e-01 2.3338323757835027e+00 5.3759612647565671e+00 1.1203717425380665e+01 -2 0 0
5015 1672 4 -8.1999999999999995e-01 5.0727252077489338e+00 9.3424686737209761e-01 1.6067859641256117e+01 -1 -2 0
5762 1921 4 -8.1999999999999995e-01 9.4732692990508554e+00 4.2015624385375387e+00 1.7579238308778656e+01 0 2 -1
2293 765 3 4.0999999999999998e-01 4.0419957379805886e+00 7.3394322623788915e+00 1.3525718610061828e+01 0 3 -1
1636 546 3 4.0999999999999998e-01 5.7562115097575948e+00 1.4743686833288168e+00 1.3720405711531523e+01 -1 2 -1
6039 2013 3 4.0999999999999998e-01 7.7420399747760200e+00 7.3617210401628985e-01 1.8018722834374170e+01 2 1 1
1844 615 4 -8.1999999999999995e-01 8.0380080377823457e+00 3.6847965420857509e-01 2.0392665325792162e+01 0 1 0
6038 2013 4 -8.1999999999999995e-01 7.4889369845406204e+00 3.8367539734530631e-01 1.7100448870320268e+01 2 1 1
5614 1872 3 4.0999999999999998e-01 7.4823443948460406e+00 6.0408085532129874e-01 1.5530196204610194e+01 3 1 2
1424 475 4 -8.1999999999999995e-01 2.8086446683036193e+00 5.2062798432602708e+00 1.6001117760277360e+01 1 3 1
5575 1859 3 4.0999999999999998e-01 6.3475021544859214e+00 9.6747744420846740e+00 1.1960666948529775e+01 1 1 6
3861 1287 3 4.0999999999999998e-01 9.0891191831213902e+00 6.4414675037573748e+00 1.1135151115352116e+01 2 2 -1
5131 1711 3 4.0999999999999998e-01 8.7580041148196592e+00 6.3042607594869704e+00 1.9692613947372564e+01 -1 1 -1
5014 1672 3 4.0999999999999998e-01 5.3635530108148890e+00 6.6091155267977209e-01 1.5114260854986370e+01 -1 -2 0
3717 1239 3 4.0999999999999998e-01 9.3160408574320126e+00 9.6448950041964086e+00 1.4486426545039290e+01 2 -3 1
5086 1696 3 4.0999999999999998e-01 1.9219877613467398e+00 4.6899872322125615e+00 1.1820255367102694e+01 -2 0 0
7093 2365 3 4.0999999999999998e-01 5.3449791003990299e+00 6.1884551491739126e+00 1.1608926307842161e+01 3 -1 0
23 8 4 -8.1999999999999995e-01 2.9974732823366415e+00 3.8517673348905199e+00 1.9112743017495305e+01 5 0 2
5638 1880 3 4.0999999999999998e-01 4.2857430583483573e+00 1.1268413300270741e+00 2.0327233399749055e+01 0 0 -3
3179 1060 4 -8.1999999999999995e-01 5.6516912062692448e+00 4.3035148775411987e+00 1.4196229398720444e+01 1 0 4
2294 765 4 -8.1999999999999995e-01 4.2168583541118254e+00 7.0213171164425301e+00 1.2576900945837318e+01 0 3 -1
1828 610 3 4.0999999999999998e-01 2.2500221411580763e+00 7.9125667256264061e+00 1.8589892250015794e+01 -1 -1 0
6708 2236 3 4.0999999999999998e-01 2.2735965917756626e+00 2.3966453450294769e+00 1.1416410757546684e+01 0 0 3
5576 1859 4 -8.1999999999999995e-01 7.3854543153522600e+00 9.6298712085514619e+00 1.1961280218298551e+01 1 1 6
22 8 3 4.0999999999999998e-01 3.7892935790733322e+00 4.1576237472039814e+00 1.8528696210598447e+01 5 0 2
6082 2028 3 4.0999999999999998e-01 6.4446439895691510e-01 8.0414648490425016e+00 1.2726722874891545e+01 0 1 0
5615 1872 4 -8.1999999999999995e-01 7.6146149916671959e+00 8.7832861472030410e-01 1.4497025753632451e+01 3 1 2
2463 821 3 4.0999999999999998e-01 4.9216139699694335e+00 7.1700252273259322e+00 2.0872739138473392e+01 3 0 1
6596 2199 4 -8.1999999999999995e-01 6.6358338676512876e+00 7.7924067309055678e+00 1.6119464092792207e+01 2 -2 -1
616 206 3 4.0999999999999998e-01 5.2176922559422740e+00 2.5413707103938168e+00 1.7143260609542356e+01 1 -1 -1
4415 1472 4 -8.1999999999999995e-01 9.0335065384393243e+00 8.2848463549257314e+00 1.7198500281770187e+01 1 1 -2
2451 817 3 4.0999999999999998e-01 2.4040483134531492e+00 2.9471499887486075e+00 2.0797025642033358e+01 0 2 -1
5610 1870 3 4.0999999999999998e-01 3.4382025417919886e+00 8.4220978930539001e+00 1.5557362329299126e+01 1 3 0
4111 1371 3 4.0999999999999998e-01 5.8840280787783881e+00 8.4759238791010247e+00 1.8655473174589815e+01 1 0 2
6624 2208 3 4.0999999999999998e-01 2.8601698092790944e+00 1.1944287480350289e+00 1.8237242909090845e+01 0 0 1
1638 546 3 4.0999999999999998e-01 5.1396326509137982e+00 2.9152685499951834e+00 1.3583982249572214e+01 -1 2 -1
4899 1633 3 4.0999999999999998e-01 8.3644637837188824e+00 9.6913205865151468e+00 2.0980769705634376e+01 -2 0 2
618 206 3 4.0999999999999998e-01 4.6620409236417988e+00 3.9525251863188378e+00 1.6553486362250766e+01 1 -1 -1
3178 1060 3 4.0999999999999998e-01 5.3288637714803739e+00 5.2566286136671883e+00 1.4066164200133963e+01 1 0 4
4737 1579 3 4.0999999999999998e-01 9.7328621779754734e+00 2.8606719102774503e+00 1.8840406620160422e+01 -1 1 -2
6037 2013 3 4.0999999999999998e-01 6.4817502054719274e+00 4.8176994702757192e-01 1.6946189729591890e+01 2 1 1
6707 2236 4 -8.1999999999999995e-01 2.7213969808226741e+00 1.6223194332374358e+00 1.0888266929350891e+01 0 0 3
4113 1371 3 4.0999999999999998e-01 4.3102937108552331e+00 8.7777976552711721e+00 1.8996510048941609e+01 1 0 2
5734 1912 3 4.0999999999999998e-01 4.3862888202332595e+00 9.1894930377228174e+00 1.2678784615458355e+01 0 2 -2
1637 546 4 -8.1999999999999995e-01 4.9102143348285905e+00 1.9180168913249391e+00 1.3398111040762487e+01 -1 2 -1
2891 964 4 -8.1999999999999995e-01 1.1986061541285404e+00 3.2543438824211024e+00 1.2313604160091920e+01 -1 -1 0
5132 1711 4 -8.1999999999999995e-01 9.7433911643425333e+00 6.3452563208617496e+00 1.9340183632479757e+01 -1 1 -1
6346 2116 3 4.0999999999999998e-01 7.4012921881967726e+00 7.4137814428775295e+00 1.3488944671194901e+01 -1 0 1
5608 1870 3 4.0999999999999998e-01 5.0434067813641148e+00 8.0130655583545973e+00 1.5690228925545103e+01 1 3 0
3715 1239 3 4.0999999999999998e-01 8.1909012962658245e+00 1.0301132309708569e+01 1.3440370688187141e+01 2 -3 1
884 295 4 -8.1999999999999995e-01 1.9474442673180492e+00 6.3051011658042233e+00 1.9582662625303545e+01 0 3 -2
1830 610 3 4.0999999999999998e-01 2.1861396056708657e+00 9.4132136561218651e+00 1.9274611233543830e+01 -1 -1 0
5346 1782 3 4.0999999999999998e-01 2.0908964861551733e+00 1.9002772819594895e+00 1.5700904246682416e+01 2 1 0
4735 1579 3 4.0999999999999998e-01 9.7400681461144618e+00 1.4734162955255303e+00 1.9809458692526761e+01 -1 1 -2
6084 2028 3 4.0999999999999998e-01 9.8996018021399668e-01 8.8475073781084941e+00 1.4202699641311373e+01 0 1 0
5133 1711 3 4.0999999999999998e-01 9.7158889663157950e+00 7.1551717462865021e+00 1.8704603466524041e+01 -1 1 -1
3180 1060 3 4.0999999999999998e-01 6.4670385903109810e+00 4.3600367981866048e+00 1.4809159255149815e+01 1 0 4
5763 1921 3 4.0999999999999998e-01 9.3300887571325468e+00 5.2029528689531750e+00 1.7555291088106824e+01 0 2 -1
1423 475 3 4.0999999999999998e-01 1.8455729820622400e+00 4.9637464007050811e+00 1.6185719414433230e+01 1 3 1
2892 964 3 4.0999999999999998e-01 1.6506287845617607e-01 3.2644914638946854e+00 1.2251181390974358e+01 -1 -1 0
5345 1782 4 -8.1999999999999995e-01 2.0523221829947746e+00 1.9356001111973087e+00 1.4715543287919418e+01 2 1 0
4414 1472 3 4.0999999999999998e-01 8.9771736495662342e+00 9.3208634322956669e+00 1.7396408232589604e+01 1 1 -2
4416 1472 3 4.0999999999999998e-01 9.5365449059162657e+00 8.3449324951634409e+00 1.6264557976386694e+01 1 1 -2
1806 602 3 4.0999999999999998e-01 6.1827286888063124e+00 3.7311894863862665e+00 1.9138543967622155e+01 0 0 2
6706 2236 3 4.0999999999999998e-01 2.6251426314660873e+00 7.3112356462684214e-01 1.1343004357472394e+01 0 0 3
3860 1287 4 -8.1999999999999995e-01 8.3786380008093335e+00 7.1796641795044067e+00 1.1148737124486070e+01 2 2 -1
5609 1870 4 -8.1999999999999995e-01 4.2201681466998151e+00 7.9390664459664180e+00 1.5048043150844483e+01 1 3 0
1804 602 3 4.0999999999999998e-01 6.6028905836171630e+00 2.8098945077814821e+00 2.0546605838242080e+01 0 0 2
1829 610 4 -8.1999999999999995e-01 2.5674781343429425e+00 8.8936359524357744e+00 1.8460263683081500e+01 -1 -1 0
5736 1912 3 4.0999999999999998e-01 4.5245544158585744e+00 1.0191042416133802e+01 1.1218511458650612e+01 0 2 -2
319 107 3 4.0999999999999998e-01 7.6544192324839884e+00 4.8402599212277133e+00 2.0793925350434673e+01 0 -1 0
5769 1923 3 4.0999999999999998e-01 9.7507163089722404e+00 1.3816321267988285e+00 1.3520234336344824e+01 1 -1 -2
1805 602 4 -8.1999999999999995e-01 6.8701242592173966e+00 3.5650751299659849e+00 1.9957074546836893e+01 0 0 2
2978 993 4 -8.1999999999999995e-01 7.1951483159823031e+00 3.6108058545818245e+00 1.1567663855862271e+01 3 0 2
2979 993 3 4.0999999999999998e-01 6.8003016018898190e+00 4.5271885140863226e+00 1.1348043906309885e+01 3 0 2
7028 2343 4 -8.1999999999999995e-01 1.0435370534761239e+01 8.2667066962251710e+00 1.4940328048945881e+01 1 0 1
3576 1192 3 4.0999999999999998e-01 8.5636484787985836e+00 3.2703002675671673e+00 1.0658183615984184e+01 0 -1 2
5016 1672 3 4.0999999999999998e-01 4.4158367940472036e+00 2.1448965542163023e-01 1.6478560677944795e+01 -1 -2 0
3859 1287 3 4.0999999999999998e-01 7.5010259526476348e+00 6.8497289187345007e+00 1.0730118945819854e+01 2 2 -1
883 295 3 4.0999999999999998e-01 1.0048366902302301e+00 6.2969667968704925e+00 1.9191960480024704e+01 0 3 -2
3517 1173 3 4.0999999999999998e-01 6.2211570229734647e+00 1.0424595226139303e+01 1.5460207190277453e+01 -1 0 1
5080 1694 3 4.0999999999999998e-01 6.1409192017471037e+00 2.1878582308738022e+00 1.0753518874261152e+01 1 1 3
4077 1359 3 4.0999999999999998e-01 1.0188361753078194e+01 4.7111299084570772e+00 1.0662565380223386e+01 -2 2 3
3186 1062 3 4.0999999999999998e-01 7.8858352590401259e-01 2.6547985648483583e+00 2.4598796070711202e+01 0 2 0
1845 615 3 4.0999999999999998e-01 8.7238101556888559e+00 2.8251300789238043e-01 2.1150400410359005e+01 0 1 0
3231 1077 3 4.0999999999999998e-01 3.1673292516148921e+00 5.7133376292782962e+00 3.0226304444799574e+01 0 -3 1
1166 389 4 -8.1999999999999995e-01 2.0766810327492391e+00 3.7233321308212592e+00 2.4027060713552011e+01 -3 0 -2
2972 991 4 -8.1999999999999995e-01 4.5226513357883782e+00 2.7159090412230258e+00 3.0717295354271982e+01 -1 3 0
42 14 3 4.0999999999999998e-01 7.8498993513483004e+00 7.6558358417037216e+00 2.4435787362244760e+01 2 -1 1
6889 2297 3 4.0999999999999998e-01 1.7988105772751080e+00 3.8317066397101640e+00 2.8226312891018736e+01 1 1 2
2449 817 3 4.0999999999999998e-01 8.1716836929978554e-01 2.9528978979378580e+00 2.1334097165934264e+01 0 2 -1
1665 555 3 4.0999999999999998e-01 2.6913628330596082e+00 2.2800580399283694e+00 2.6887639479554256e+01 0 -3 -2
4794 1598 3 4.0999999999999998e-01 1.5713979042854629e+00 1.8979079571322703e+00 2.9022403812081578e+01 -1 -1 0
3586 1196 3 4.0999999999999998e-01 5.6082477470290879e+00 9.2130842665528707e+00 2.9151751589198973e+01 1 0 2
6495 2165 3 4.0999999999999998e-01 5.0876596735269395e+00 2.4569633989705264e+00 2.2109455574630871e+01 0 1 -1
2971 991 3 4.0999999999999998e-01 4.5901041446349522e+00 2.7353793018318271e+00 2.9693519710350156e+01 -1 3 0
2288 763 4 -8.1999999999999995e-01 3.8016416508189188e+00 8.3321660353982807e+00 3.1298893890237011e+01 2 -2 -3
5331 1777 3 4.0999999999999998e-01 8.2536597456706087e+00 6.6859418672993574e+00 2.9467088381015248e+01 -2 0 0
3298 1100 3 4.0999999999999998e-01 9.8217149068887171e+00 5.1828741646048238e-01 2.8160846292793618e+01 0 1 -1
1167 389 3 4.0999999999999998e-01 2.1929662878892384e+00 3.2432178918453700e+00 2.3069259063556789e+01 -3 0 -2
1898 633 4 -8.1999999999999995e-01 5.4177463383444318e+00 9.8280800010559926e+00 2.4011820772173412e+01 3 2 0
40 14 3 4.0999999999999998e-01 8.2602671331134037e+00 8.8512748203250293e+00 2.3417758429785938e+01 2 -1 1
6837 2279 3 4.0999999999999998e-01 8.2070649108846983e+00 6.1302728119444696e+00 2.6088240528228578e+01 -1 -1 1
4820 1607 4 -8.1999999999999995e-01 8.7996798434499492e+00 1.6383952807886095e+00 2.5302733697887362e+01 1 2 0
2461 821 3 4.0999999999999998e-01 4.1175433662294081e+00 7.2122436768258673e+00 2.2364890171862474e+01 3 0 1
25 9 3 4.0999999999999998e-01 1.7438839249561386e+00 8.1626767990160172e+00 2.8723377124009762e+01 1 0 0
2517 839 3 4.0999999999999998e-01 3.9602674467172276e+00 6.1177331328495805e+00 2.5873964377864546e+01 0 -2 -1
3229 1077 3 4.0999999999999998e-01 2.5675639104567756e+00 5.9123546998873326e+00 2.8672232498884643e+01 0 -3 1
4244 1415 4 -8.1999999999999995e-01 9.7435250535128315e+00 6.7465634570009110e+00 2.6916197752434581e+01 0 2 0
344 115 4 -8.1999999999999995e-01 1.9916805042553234e+00 7.2442536086680436e+00 2.2113089841561912e+01 -1 0 0
1607 536 4 -8.1999999999999995e-01 9.0554429480112084e+00 2.4082286404736677e+00 3.0519600242265057e+01 -2 -2 1
6561 2187 3 4.0999999999999998e-01 9.2563314325912904e-01 6.5745846217356352e+00 2.4716448675044330e+01 0 2 -2
4243 1415 3 4.0999999999999998e-01 9.9584399288647969e+00 5.8492388476849344e+00 2.7262378897659666e+01 0 2 0
6943 2315 3 4.0999999999999998e-01 6.2835367793999257e+00 6.8938272088113912e+00 2.8490175144048290e+01 1 0 0
5189 1730 4 -8.1999999999999995e-01 1.4766883863502211e+00 8.0593085942457545e+00 2.5215001989462866e+01 0 1 1
6835 2279 3 4.0999999999999998e-01 7.3579167411365969e+00 5.0118722023466322e+00 2.5424610475853640e+01 -1 -1 1
5330 1777 4 -8.1999999999999995e-01 8.4898148527356962e+00 7.6603333191378216e+00 2.9795955041412924e+01 -2 0 0
343 115 3 4.0999999999999998e-01 1.6461968057827505e+00 6.4931617917876201e+00 2.2701539021217890e+01 -1 0 0
3299 1100 4 -8.1999999999999995e-01 1.0472253547325629e+01 8.1203611211720605e-01 2.7448891487177690e+01 0 1 -1
2515 839 3 4.0999999999999998e-01 5.3571322749986798e+00 5.7550948309753158e+00 2.5295611440560968e+01 0 -2 -1
6493 2165 3 4.0999999999999998e-01 5.9796560603565245e+00 1.0867150173608386e+00 2.2306716520954698e+01 0 1 -1
1664 555 4 -8.1999999999999995e-01 2.7770922093986057e+00 2.5896708974368141e+00 2.7848117488258822e+01 0 -3 -2