LAMMPS data file via write_data, version 5 Jun 2019, timestep = 9000000

7349 atoms
5 atom types
4899 bonds
2 bond types
2451 angles
2 angle types
1 impropers
1 improper types

1.5519297081455363e-01 4.1845807029189409e+01 xlo xhi
1.5469297081455124e-01 4.1845307029189406e+01 ylo yhi
1.5469297081455124e-01 4.1845307029189406e+01 zlo zhi

#Masses
#
#1 12.01
#2 40.08
#3 1.01
#4 16
#5 16
#
#Bond Coeffs # harmonic
#
#1 20.4246 1.3042
#2 22.965 1.012

Atoms # full

2461 821 3 4.0999999999999998e-01 1.8322365527120417e+00 9.1454399808009263e+00 9.5954447561964784e+00 4 -1 1
1220 407 4 -8.1999999999999995e-01 1.0112371360292308e+01 1.0138594895436027e+01 1.4021178302011823e+00 2 1 2
5125 1709 3 4.0999999999999998e-01 4.2103104801779763e+00 8.9500170390706231e+00 6.4045194079804908e+00 1 -3 1
5858 1953 4 -8.1999999999999995e-01 1.8300812717903325e+00 4.1840092063006704e+00 1.0297121688753402e+01 -2 -1 4
6322 2108 3 4.0999999999999998e-01 3.8758218927237169e+00 4.8637141561826622e+00 7.6913537114768236e+00 1 -4 2
3230 1077 4 -8.1999999999999995e-01 6.8563680676164456e+00 6.8649650691522277e+00 1.8491745863467701e+00 1 -2 2
860 287 4 -8.1999999999999995e-01 9.1706512727500460e+00 6.8784049875160544e+00 1.5900016867900363e-01 0 0 2
2055 685 3 4.0999999999999998e-01 5.2156054034965376e+00 1.0123208973770945e+01 1.1335185572704780e+00 2 1 1
6235 2079 3 4.0999999999999998e-01 5.5438228980839419e+00 2.7606726748116057e+00 4.8099656238295019e+00 1 4 3
5820 1940 3 4.0999999999999998e-01 9.7986684871644094e+00 5.6435237350276806e+00 1.0528433163120772e+00 1 0 1
2264 755 4 -8.1999999999999995e-01 5.1359628898650982e+00 6.6922891730252152e+00 3.9339056682118070e+00 0 3 -3
1681 561 3 4.0999999999999998e-01 6.7714050951178217e+00 2.7439573061276885e+00 6.7688368424065377e+00 -2 2 1
5859 1953 3 4.0999999999999998e-01 2.7396166757640295e+00 4.6083924367774323e+00 9.8969537057720540e+00 -2 -1 4
3159 1053 3 4.0999999999999998e-01 1.5596534327276599e+00 4.9966303098864371e+00 1.9159526309938952e+00 -2 0 -1
23 8 4 -8.1999999999999995e-01 4.4976137601454393e+00 2.7962487046280597e+00 2.5239752884340674e+00 5 0 2
6337 2113 3 4.0999999999999998e-01 5.9551943629937094e+00 4.5375268413125278e+00 5.6423340021761070e-01 0 4 2
5722 1908 3 4.0999999999999998e-01 6.5179562586232098e+00 6.2042127122960808e+00 7.0386090807608923e+00 1 2 -1
5818 1940 3 4.0999999999999998e-01 9.4722800566370147e+00 4.5343567874014230e+00 2.2363229868368162e+00 1 0 1
4742 1581 4 -8.1999999999999995e-01 2.2748574902595031e+00 2.3656908580961247e+00 4.8754409857711254e+00 3 0 -1
5403 1801 3 4.0999999999999998e-01 7.7157315315188435e-01 1.3443073568245016e+00 6.7841298113813320e+00 1 0 -2
4741 1581 3 4.0999999999999998e-01 2.2309601258233211e+00 1.3637342679755784e+00 4.6822458232978041e+00 3 0 -1
1366 456 3 4.0999999999999998e-01 3.1367580119303775e+00 8.9459853074170379e+00 5.1347879056638812e-01 -1 0 2
5126 1709 4 -8.1999999999999995e-01 3.2416453340852138e+00 8.6593816767180538e+00 6.6229012973355834e+00 1 -3 1
5724 1908 3 4.0999999999999998e-01 7.6349396785312500e+00 5.9106644295610762e+00 5.7581619471942265e+00 1 2 -1
7292 2431 4 -8.1999999999999995e-01 4.5841754576644878e+00 2.1495201152884769e+00 1.0463041256538954e+01 -1 3 -2
5509 1837 3 4.0999999999999998e-01 2.8726878131080662e+00 7.0344442453712652e+00 8.8162544497245516e+00 1 1 3
2429 810 4 -8.1999999999999995e-01 4.0441482501233121e+00 1.0791898253421965e+00 3.9098039568426707e-01 -2 1 -1
1367 456 4 -8.1999999999999995e-01 3.0190778068565218e+00 8.8534844173895113e+00 1.5427204298410737e+00 -1 0 2
2263 755 3 4.0999999999999998e-01 4.1348967592480443e+00 6.7601043970685275e+00 4.0758936116969089e+00 0 3 -3
861 287 3 4.0999999999999998e-01 8.6478420486819019e+00 7.5072379346836362e+00 7.9073631877565353e-01 0 0 2
4634 1545 4 -8.1999999999999995e-01 5.8214097869675037e+00 9.5915724235444877e+00 5.5755250137409345e+00 1 -1 -1
1682 561 4 -8.1999999999999995e-01 7.6895522780432684e+00 2.5831295377722152e+00 7.1778879524872981e+00 -2 2 1
4406 1469 4 -8.1999999999999995e-01 9.9660727092035799e+00 2.3810074783271573e+00 9.1434863043718195e+00 0 3 -2
4171 1391 3 4.0999999999999998e-01 7.0991808286046947e+00 5.3374467041301372e+00 9.4323245033778242e+00 -1 -1 0
6237 2079 3 4.0999999999999998e-01 4.6784151848721516e+00 3.3371407834965843e+00 6.1091129664142478e+00 1 4 3
1718 573 4 -8.1999999999999995e-01 2.6626947450546394e+00 6.8144897369599038e+00 4.7781747488818338e+00 3 1 3
6339 2113 3 4.0999999999999998e-01 5.6629780276362842e+00 3.6291888718322585e+00 2.0448983165710533e+00 0 4 2
3342 1114 3 4.0999999999999998e-01 5.3856686088191879e+00 9.7606856882614785e+00 1.0297419149329162e+01 -2 -1 -2
4173 1391 3 4.0999999999999998e-01 6.1549970818499524e+00 6.7770920447393888e+00 9.5476961437625363e+00 -1 -1 0
24 8 3 4.0999999999999998e-01 4.1726643557680134e+00 2.4510891471482061e+00 1.5813382908223477e+00 5 0 2
5171 1724 4 -8.1999999999999995e-01 3.4049276577340173e+00 4.5764381390951430e+00 6.1568661229540291e+00 0 -3 -4
2463 821 3 4.0999999999999998e-01 1.7268741718003611e-01 9.3021620115782522e+00 9.4687248281486092e+00 4 -1 1
785 262 4 -8.1999999999999995e-01 8.6619460839193199e+00 8.1800244715519965e-01 4.0267275972976480e+00 1 2 -1
5510 1837 4 -8.1999999999999995e-01 2.9656324149184479e+00 7.9775681579268198e+00 9.2276058689763687e+00 1 1 3
3157 1053 3 4.0999999999999998e-01 3.6002862962034393e-01 6.0890629017064857e+00 1.6099422546626887e+00 -2 0 -1
3229 1077 3 4.0999999999999998e-01 6.8753114455038418e+00 5.8427549452704737e+00 1.5954731269072377e+00 1 -2 2
6236 2079 4 -8.1999999999999995e-01 5.3960122484361071e+00 2.6628076062087529e+00 5.7763171759964340e+00 1 4 3
1917 639 3 4.0999999999999998e-01 7.3650083225022467e+00 1.0310964966115700e+01 2.7312906899259302e+00 -1 -1 1
3790 1264 3 4.0999999999999998e-01 6.2010872711768892e+00 8.4927608183309609e+00 2.2804370254666995e+00 2 1 1
1387 463 3 4.0999999999999998e-01 4.8568509994949460e+00 1.2953107047827108e+00 6.9584302035307939e+00 -1 -1 2
786 262 3 4.0999999999999998e-01 9.4527687367297180e+00 7.8577094294989325e-01 4.6293110090903129e+00 1 2 -1
22 8 3 4.0999999999999998e-01 3.8315566102911300e+00 2.6952783663993691e+00 3.3337202263488677e+00 5 0 2
3792 1264 3 4.0999999999999998e-01 5.6552415788517481e+00 9.1596157482773961e+00 3.6928706526811528e+00 2 1 1
5172 1724 3 4.0999999999999998e-01 3.0698117795576971e+00 5.4592947534489191e+00 5.7808711720755834e+00 0 -3 -4
2034 678 3 4.0999999999999998e-01 8.2211069780139301e+00 2.3969243685103514e+00 3.4684680231122491e+00 0 2 -2
4633 1545 3 4.0999999999999998e-01 6.6648512743362645e+00 9.3853354097078832e+00 6.1196162431335592e+00 1 -1 -1
2136 712 3 4.0999999999999998e-01 1.0272171554709827e+01 6.3092338914941042e+00 8.5716096168057696e+00 0 1 0
4405 1469 3 4.0999999999999998e-01 8.9479399830114907e+00 2.2112818517935540e+00 8.8888857841249589e+00 0 3 -2
6338 2113 4 -8.1999999999999995e-01 6.3675989036517917e+00 4.2119349582565322e+00 1.4499163405313882e+00 0 4 2
1388 463 4 -8.1999999999999995e-01 4.7356183131591321e+00 3.5090182499496630e-01 7.3034768596472404e+00 -1 -1 2
3158 1053 4 -8.1999999999999995e-01 5.3992733074601029e-01 5.0708676616851376e+00 1.9297773460958101e+00 -2 0 -1
7240 2414 3 4.0999999999999998e-01 8.6390997738557331e+00 3.6322534442411221e+00 6.1101467394254092e+00 0 1 3
3231 1077 3 4.0999999999999998e-01 6.2299559511903881e+00 6.9120509461507176e+00 2.6426184738060305e+00 1 -2 2
2032 678 3 4.0999999999999998e-01 7.6594980500524965e+00 3.2783023737492982e+00 2.2466359895469323e+00 0 2 -2
4172 1391 4 -8.1999999999999995e-01 6.5148428406146470e+00 6.0392202643228607e+00 8.8953495247123335e+00 -1 -1 0
1719 573 3 4.0999999999999998e-01 1.9524909337808718e+00 7.1679922400011620e+00 4.1305845757623105e+00 3 1 3
5127 1709 3 4.0999999999999998e-01 3.3216668704637793e+00 8.2996908979639326e+00 7.5842461454857508e+00 1 -3 1
5819 1940 4 -8.1999999999999995e-01 1.0208856918626545e+01 5.0521333356652898e+00 1.7970294673267493e+00 1 0 1
5857 1953 3 4.0999999999999998e-01 1.0193536343299858e+00 4.5963542455977411e+00 9.9371708488509203e+00 -2 -1 4
5591 1864 4 -8.1999999999999995e-01 1.6175865027683951e+00 1.8567155750444033e+00 8.0862232812176131e+00 1 -3 1
5511 1837 3 4.0999999999999998e-01 3.5601173620273894e+00 7.9242713941498018e+00 1.0058783530319424e+01 1 1 3
5592 1864 3 4.0999999999999998e-01 1.8716458039334294e+00 9.4633028764154348e-01 8.4490353645001726e+00 1 -3 1
4830 1610 3 4.0999999999999998e-01 2.0862141450655138e+00 1.0054298860222479e+01 6.5675067975393029e+00 -1 1 -2
1368 456 3 4.0999999999999998e-01 3.3101563020798861e+00 9.7194875304991868e+00 2.0299562222410916e+00 -1 0 2
5399 1800 4 -8.1999999999999995e-01 8.4605206904716770e+00 9.8805092712198217e+00 9.4353333529571319e+00 -2 0 -2
3032 1011 4 -8.1999999999999995e-01 9.5409597619305604e+00 3.4955811066432280e-01 6.7520663559063649e+00 4 1 -2
5170 1724 3 4.0999999999999998e-01 2.9420616503203152e+00 3.8214756831721952e+00 5.6819267450857618e+00 0 -3 -4
2430 810 3 4.0999999999999998e-01 3.1914280082456958e+00 4.9073339345324041e-01 2.5358326654615149e-01 -2 1 -1
2265 755 3 4.0999999999999998e-01 5.6443810727567323e+00 6.9088514175298910e+00 4.8222173689984293e+00 0 3 -3
2462 821 4 -8.1999999999999995e-01 1.0111136487548220e+00 9.6705203088121774e+00 9.9945797149523443e+00 4 -1 1
3004 1002 3 4.0999999999999998e-01 1.0436583211733513e+01 3.8929083912817148e+00 9.1537240563409039e+00 -2 -1 -1
2154 718 3 4.0999999999999998e-01 7.5184003278772531e+00 7.9904064284060086e+00 6.4436879360945127e+00 -1 -1 1
4743 1581 3 4.0999999999999998e-01 1.2971728311709645e+00 2.7216189525829599e+00 4.6486077446412866e+00 3 0 -1
202 68 3 4.0999999999999998e-01 3.7883244637397637e+00 5.7186487494017300e+00 2.3817870134617829e+00 2 -3 -2
7242 2414 3 4.0999999999999998e-01 8.5679165256951464e+00 4.1741258800656391e+00 4.4425856297742365e+00 0 1 3
6324 2108 3 4.0999999999999998e-01 4.7970399073290810e+00 5.4896061268983312e+00 8.9275961275025359e+00 1 -4 2
6323 2108 4 -8.1999999999999995e-01 3.8294550528271292e+00 5.1884415827050150e+00 8.6914670456205005e+00 1 -4 2
7241 2414 4 -8.1999999999999995e-01 8.6214858469316624e+00 4.4876373573952693e+00 5.4699457315713191e+00 0 1 3
5590 1864 3 4.0999999999999998e-01 1.9201586226944707e+00 2.5795704212042501e+00 8.6872070470603742e+00 1 -3 1
5402 1801 4 -8.1999999999999995e-01 2.1177794184319762e-01 7.8511576183620313e-01 6.0982964337399652e+00 1 0 -2
2152 718 3 4.0999999999999998e-01 9.0756867180466347e+00 8.5499482594564213e+00 6.6693325526506975e+00 -1 -1 1
1717 573 3 4.0999999999999998e-01 2.8827484782606825e+00 7.5581311186257931e+00 5.4653083322543550e+00 3 1 3
203 68 4 -8.1999999999999995e-01 3.0514763080244895e+00 6.1350689129214944e+00 1.8316886113968025e+00 2 -3 -2
1683 561 3 4.0999999999999998e-01 8.0614636084495626e+00 1.6506090440001437e+00 7.1068588469148679e+00 -2 2 1
2033 678 4 -8.1999999999999995e-01 8.3493137293629776e+00 3.2987190756483358e+00 3.0382447828588695e+00 0 2 -2
5400 1800 3 4.0999999999999998e-01 8.4317784420550481e+00 9.6035348183966285e+00 8.4476926398862560e+00 -2 0 -2
2135 712 4 -8.1999999999999995e-01 1.0244767986574528e+01 7.2544151913131119e+00 8.2569403929340695e+00 0 1 0
2153 718 4 -8.1999999999999995e-01 8.1068896443958849e+00 8.8270108590335941e+00 6.5590694702417602e+00 -1 -1 1
5723 1908 4 -8.1999999999999995e-01 6.7966188431707302e+00 6.4478267979404835e+00 6.0732301215416324e+00 1 2 -1
204 68 3 4.0999999999999998e-01 3.2262161342847611e+00 7.1922153455941853e+00 1.7757792736450300e+00 2 -3 -2
5290 1764 3 4.0999999999999998e-01 7.8120999443714789e-01 8.1517795873465317e+00 9.5220341221322913e-01 2 -2 0
3791 1264 4 -8.1999999999999995e-01 5.7203568355817760e+00 9.3115885762276598e+00 2.6638211936577649e+00 2 1 1
1935 645 3 4.0999999999999998e-01 1.0436327063786685e+01 5.2123277206400402e+00 5.7355987319882979e+00 1 2 0
1030 344 3 4.0999999999999998e-01 4.6148187858013960e+00 3.3971301048133334e-01 2.4195646601893119e+00 3 1 1
3341 1114 4 -8.1999999999999995e-01 4.7523945906342240e+00 1.0530893492373387e+01 1.0361750442163808e+01 -2 -1 -2
1221 407 3 4.0999999999999998e-01 9.6108211380173980e+00 1.0405240665986968e+01 2.2383942338652392e+00 2 1 2
1389 463 3 4.0999999999999998e-01 4.0066814056661890e+00 2.4971156745269893e-01 8.0627874913350102e+00 -1 -1 2
3031 1011 3 4.0999999999999998e-01 1.0546257759309130e+01 6.0071712779124975e-01 6.6046921660737405e+00 4 1 -2
1054 352 3 4.0999999999999998e-01 6.4162300407274975e+00 5.4456386862778468e+00 1.4928078012107363e+01 -1 -1 -2
5354 1785 4 -8.1999999999999995e-01 1.7195097793429488e+00 5.0005278901552055e+00 1.7909888791645788e+01 0 2 1
2364 788 3 4.0999999999999998e-01 3.3116010541659637e+00 7.1442484504640777e+00 1.9179895919493969e+01 2 -2 -1
2376 792 3 4.0999999999999998e-01 1.0240434972584426e+01 7.4535809771110975e+00 1.4128472482654949e+01 1 -4 0
3686 1229 4 -8.1999999999999995e-01 1.2920986986064611e+00 5.4625117032986079e+00 1.4750320435090254e+01 1 1 4
6455 2152 4 -8.1999999999999995e-01 7.2618576827065242e+00 2.7739232479437610e+00 1.8954255092137938e+01 0 0 1
2468 823 4 -8.1999999999999995e-01 4.9458090349383914e+00 1.0275304235488830e+01 1.9368833074414621e+01 -1 2 0
6454 2152 3 4.0999999999999998e-01 8.2217039416746491e+00 3.2450329341014879e+00 1.8933110455214912e+01 0 0 1
3133 1045 3 4.0999999999999998e-01 6.7671923860246181e+00 1.5236937056833413e+00 1.3494344778003237e+01 1 4 0
327 109 3 4.0999999999999998e-01 6.1079566030430295e+00 1.8026549612608722e+00 1.7613056054997926e+01 -2 1 -1
326 109 4 -8.1999999999999995e-01 5.7890140261855816e+00 9.2351596330489605e-01 1.7231616716658674e+01 -2 1 -1
2857 953 3 4.0999999999999998e-01 3.8872577637284440e+00 7.2906054563148786e+00 1.4055423596289561e+01 2 1 -1
2367 789 3 4.0999999999999998e-01 2.7746666028996523e+00 6.0204813828470014e+00 1.5743207780907376e+01 1 1 0
3687 1229 3 4.0999999999999998e-01 6.5109744838464478e-01 6.0921004540507813e+00 1.4175878897847163e+01 1 1 4
922 308 3 4.0999999999999998e-01 9.5776767182858951e+00 9.7162289223031006e+00 1.8916901940786463e+01 2 2 -2
6492 2164 3 4.0999999999999998e-01 5.4664105630494264e+00 8.3458355318074755e+00 1.3805924970481589e+01 0 2 0
5439 1813 3 4.0999999999999998e-01 7.8337385290991679e-01 5.8229321529474332e+00 1.9850368039084824e+01 1 -4 1
2469 823 3 4.0999999999999998e-01 4.3936846444838364e+00 9.5060747449180560e+00 1.9009322046546195e+01 -1 2 0
5353 1785 3 4.0999999999999998e-01 2.6754919830877735e+00 5.1316637417309821e+00 1.7460318274950566e+01 0 2 1
5438 1813 4 -8.1999999999999995e-01 6.3076834241180424e-01 6.1081141763456044e+00 2.0824537493953731e+01 1 -4 1
6201 2067 3 4.0999999999999998e-01 4.2544900532700742e+00 3.7314558286278938e+00 1.7696232873385007e+01 -1 -1 1
724 242 3 4.0999999999999998e-01 2.4317056800983172e+00 8.7190087084832228e+00 1.8111203790345815e+01 -2 1 0
923 308 4 -8.1999999999999995e-01 1.0106715247539375e+01 8.8685153089879858e+00 1.9130097815930121e+01 2 2 -2
2362 788 3 4.0999999999999998e-01 3.7767799212319684e+00 7.0725084458079754e+00 1.7638678090349206e+01 2 -2 -1
726 242 3 4.0999999999999998e-01 1.4188930048261363e+00 9.6408829660251705e+00 1.7126555651756867e+01 -2 1 0
4722 1574 3 4.0999999999999998e-01 7.9458386708934281e+00 1.7620879052872873e+00 1.1692270505071853e+01 2 -2 1
1186 396 3 4.0999999999999998e-01 2.6773480795978455e+00 4.9753807511511727e+00 1.3488621332321557e+01 1 -2 2
2859 953 3 4.0999999999999998e-01 3.0086708621671052e+00 8.7554545024414629e+00 1.3753394286172123e+01 2 1 -1
6199 2067 3 4.0999999999999998e-01 5.7805054773574271e+00 3.6723238571088554e+00 1.8266324426645806e+01 -1 -1 1
3134 1045 4 -8.1999999999999995e-01 6.9332271633532203e+00 2.1040531249563861e+00 1.4338753597165466e+01 1 4 0
3135 1045 3 4.0999999999999998e-01 6.5702846125000169e+00 3.0602464636050857e+00 1.4214066697403698e+01 1 4 0
2409 803 3 4.0999999999999998e-01 9.9341126074392641e+00 4.6430512332122853e-01 1.3235553234888179e+01 1 -1 1
4567 1523 3 4.0999999999999998e-01 9.4275589165918721e+00 4.2391989868719628e+00 1.4186281338028836e+01 0 -3 0
2365 789 3 4.0999999999999998e-01 4.0119619137270242e+00 5.0399881437593477e+00 1.6347002204781734e+01 1 1 0
5355 1785 3 4.0999999999999998e-01 1.0481152479489138e+00 5.2286079836959125e+00 1.7204974861260414e+01 0 2 1
2616 872 3 4.0999999999999998e-01 9.1767827585030179e+00 4.9295911651803044e+00 1.7475267129843239e+01 -2 -1 -3
1263 421 3 4.0999999999999998e-01 5.1247635378014191e+00 9.9792458156156751e+00 1.4717236351501516e+01 0 -3 -1
1056 352 3 4.0999999999999998e-01 4.8986629355294067e+00 4.7527924454168655e+00 1.4022894648009459e+01 -1 -1 -2
4924 1642 3 4.0999999999999998e-01 8.2526030180918415e+00 9.0005030205668923e+00 1.0956407600099578e+01 1 -2 2
1840 614 3 4.0999999999999998e-01 6.4883315073244852e+00 8.3563848087977011e+00 1.8522060339009442e+01 0 2 -1
1053 351 3 4.0999999999999998e-01 3.0777037247703398e+00 3.8993991589779298e-01 2.0541910086307496e+01 -1 0 1
2615 872 4 -8.1999999999999995e-01 9.3331345983960361e+00 4.8824662849582330e+00 1.6484395323092933e+01 -2 -1 -3
5097 1699 3 4.0999999999999998e-01 5.4054629792550566e+00 6.1771404945953980e+00 1.9546986765919502e+01 -1 -2 1
1055 352 4 -8.1999999999999995e-01 5.9384911925953112e+00 4.7732940976582734e+00 1.4265338952087058e+01 -1 -1 -2
4177 1393 3 4.0999999999999998e-01 7.1417989117479772e+00 7.2398493824172130e+00 1.6511488035170718e+01 -1 -3 2
4600 1534 3 4.0999999999999998e-01 1.2952561445720552e+00 3.2122577019023382e+00 1.8440056724151518e+01 -2 -2 1
390 130 3 4.0999999999999998e-01 4.8961521578463918e+00 7.9077367625126893e+00 1.1839590409023504e+01 0 0 0
2920 974 3 4.0999999999999998e-01 1.7604949050530732e+00 2.4912476019260335e+00 1.0771972813710091e+01 1 1 1
7300 2434 3 4.0999999999999998e-01 1.2988981848348915e+00 1.6298270178878760e-01 1.4305623057355254e+01 1 2 0
2128 710 3 4.0999999999999998e-01 5.5094409554392509e-01 2.4270298230034122e+00 1.3608510082348589e+01 -1 -1 -1
4925 1642 4 -8.1999999999999995e-01 7.8295875823531116e+00 8.5251938221665622e+00 1.1758626052745129e+01 1 -2 2
2922 974 3 4.0999999999999998e-01 3.0757867056022050e+00 1.6784333214531566e+00 1.0926299133403678e+01 1 1 1
4802 1601 4 -8.1999999999999995e-01 2.0016780292277843e+00 1.0531762393185046e+01 1.5762495341016786e+01 -1 0 -1
6228 2076 3 4.0999999999999998e-01 2.1349235526015869e-01 2.0368127310729833e+00 1.6983830536721236e+01 2 2 0
6456 2152 3 4.0999999999999998e-01 7.4471404659310787e+00 1.8878042644501203e+00 1.9461538112679285e+01 0 0 1
1441 481 3 4.0999999999999998e-01 9.8697828217143844e+00 8.1066236220864081e+00 2.0754261849553846e+01 1 1 0
2129 710 4 -8.1999999999999995e-01 1.3717531093726489e+00 1.7770376611808372e+00 1.3539248642930966e+01 -1 -1 -1
1842 614 3 4.0999999999999998e-01 8.1046235513961182e+00 8.2218217750765348e+00 1.8334347373531923e+01 0 2 -1
6490 2164 3 4.0999999999999998e-01 6.7599844294316753e+00 9.0093360393054329e+00 1.3232116500740833e+01 0 2 0
2130 710 3 4.0999999999999998e-01 1.7030084430390975e+00 1.6486687813933787e+00 1.2605192123120652e+01 -1 -1 -1
5096 1699 4 -8.1999999999999995e-01 5.5250160884718182e+00 6.4964820350395245e+00 2.0497227313891372e+01 -1 -2 1
2809 937 3 4.0999999999999998e-01 9.2816937832650144e+00 3.7464104736904003e+00 1.2165054853406593e+01 0 -1 -2
2921 974 4 -8.1999999999999995e-01 2.0560975658365521e+00 1.5218094707316763e+00 1.0890546425928621e+01 1 1 1
4926 1642 3 4.0999999999999998e-01 8.5274879959842522e+00 7.8990377342510634e+00 1.2153297296461021e+01 1 -2 2
5148 1716 3 4.0999999999999998e-01 4.5378675810433720e+00 3.9054802528874455e+00 2.0389007135489408e+01 0 3 2
6724 2242 3 4.0999999999999998e-01 1.0041211182425922e+01 5.1375368370718411e+00 1.9334199438269597e+01 1 1 -1
2810 937 4 -8.1999999999999995e-01 8.7539907571443560e+00 3.2770572291242108e+00 1.1406912076323335e+01 0 -1 -2
6725 2242 4 -8.1999999999999995e-01 9.0058625854638894e+00 5.0237340106847661e+00 1.9458697618691005e+01 1 1 -1
3685 1229 3 4.0999999999999998e-01 6.3596945721962839e-01 4.7899461655039124e+00 1.5177303156877853e+01 1 1 4
2811 937 3 4.0999999999999998e-01 9.3946541238436421e+00 2.9327971446574890e+00 1.0659326517101359e+01 0 -1 -2
325 109 3 4.0999999999999998e-01 6.6229275796314591e+00 5.9329997849849092e-01 1.6687710943028002e+01 -2 1 -1
6726 2242 3 4.0999999999999998e-01 8.6013247746781385e+00 4.9863286081056604e+00 2.0368278806743930e+01 1 1 -1
1565 522 4 -8.1999999999999995e-01 6.1855100622249672e+00 4.2712911625896268e+00 1.1370030895531730e+01 1 -1 0
1187 396 4 -8.1999999999999995e-01 3.4693746331620141e+00 4.7194382695871493e+00 1.2860387477863563e+01 1 -2 2
4721 1574 4 -8.1999999999999995e-01 7.3311362040916235e+00 1.0549316359357543e+00 1.1418456005408439e+01 2 -2 1
4247 1416 4 -8.1999999999999995e-01 9.4193844338485615e+00 1.2311096020942389e+00 1.4888410066185285e+01 1 1 1
4246 1416 3 4.0999999999999998e-01 8.4993347376731130e+00 1.6382879024471255e+00 1.4719246399627220e+01 1 1 1
6992 2331 4 -8.1999999999999995e-01 3.5770511855315732e+00 2.7958709391610959e+00 1.6640768273915395e+01 0 0 0
389 130 4 -8.1999999999999995e-01 5.4439374528412410e+00 7.7448728479010658e+00 1.0963205149417300e+01 0 0 0
2375 792 4 -8.1999999999999995e-01 9.9860264272410699e+00 7.2991291771712481e+00 1.3149398060761952e+01 1 -4 0
725 242 4 -8.1999999999999995e-01 1.4309282595891306e+00 9.1038719002795165e+00 1.8027355203066207e+01 -2 1 0
6491 2164 4 -8.1999999999999995e-01 6.2728120943157855e+00 8.8583682190901367e+00 1.4085802314887236e+01 0 2 0
2366 789 4 -8.1999999999999995e-01 3.6400152231381631e+00 6.0225603245563466e+00 1.6339360373055086e+01 1 1 0
1564 522 3 4.0999999999999998e-01 5.8838293798059986e+00 4.5231648533220472e+00 1.2281893736514141e+01 1 -1 0
7291 2431 3 4.0999999999999998e-01 5.1303554521654560e+00 3.0020828063870151e+00 1.0721356690731865e+01 -1 3 -2
4602 1534 3 4.0999999999999998e-01 1.5528314502353404e+00 1.6030124594890520e+00 1.8750671465232095e+01 -2 -2 1
4178 1393 4 -8.1999999999999995e-01 7.3171963790711105e+00 6.7054356291235893e+00 1.5615172781039263e+01 -1 -3 2
2614 872 3 4.0999999999999998e-01 8.6245129574719126e+00 5.5098083063892824e+00 1.6145068288730432e+01 -2 -1 -3
4179 1393 3 4.0999999999999998e-01 6.9460651100196369e+00 7.2031620116964792e+00 1.4842543569021116e+01 -1 -3 2
4568 1523 4 -8.1999999999999995e-01 1.0101503580757324e+01 4.2453867400573557e+00 1.3420085761063765e+01 0 -3 0
6991 2331 3 4.0999999999999998e-01 4.2414842239734059e+00 2.0401220400531277e+00 1.6677704921083194e+01 0 0 0
2363 788 4 -8.1999999999999995e-01 3.7001871333151466e+00 7.7415724754348956e+00 1.8425528366011370e+01 2 -2 -1
2858 953 4 -8.1999999999999995e-01 3.7547255631556484e+00 8.0809847071257668e+00 1.3437385499745858e+01 2 1 -1
388 130 3 4.0999999999999998e-01 6.4731376179051869e+00 7.8774616404228635e+00 1.1148114434952143e+01 0 0 0
6200 2067 4 -8.1999999999999995e-01 4.9001804818013257e+00 4.1985675977222572e+00 1.8310588597156499e+01 -1 -1 1
1841 614 4 -8.1999999999999995e-01 7.1985421699171406e+00 7.9412458894117366e+00 1.7925609862348271e+01 0 2 -1
6993 2331 3 4.0999999999999998e-01 2.7478498976134822e+00 2.4179845832446163e+00 1.6226602619497264e+01 0 0 0
4248 1416 3 4.0999999999999998e-01 9.1573655280780368e+00 4.8501676136634070e-01 1.5538234303258776e+01 1 1 1
4720 1574 3 4.0999999999999998e-01 7.6948273683125032e+00 3.3221056378054770e-01 1.0941586655896275e+01 2 -2 1
1188 396 3 4.0999999999999998e-01 3.1326759518385554e+00 4.4830426608965226e+00 1.1947124025157226e+01 1 -2 2
4601 1534 4 -8.1999999999999995e-01 8.3840179306679985e-01 2.2789489032617545e+00 1.8645402235949245e+01 -2 -2 1
2374 792 3 4.0999999999999998e-01 9.9658413774827537e+00 6.2605984840859072e+00 1.3116547791449522e+01 1 -4 0
1566 522 3 4.0999999999999998e-01 7.1334991918204844e+00 3.8361752170559598e+00 1.1472594721482700e+01 1 -1 0
5524 1842 3 4.0999999999999998e-01 1.0492472261711754e+01 7.8406158830629753e+00 1.7166647931216875e+01 2 0 0
5095 1699 3 4.0999999999999998e-01 4.6054154807406276e+00 6.3355810391118448e+00 2.0949236949435690e+01 -1 -2 1
7293 2431 3 4.0999999999999998e-01 5.2550111605454068e+00 1.3586990139341506e+00 1.0586861436959634e+01 -1 3 -2
6521 2174 4 -8.1999999999999995e-01 1.3975666360245627e+00 8.4406450190413473e-01 2.3135706988536988e+01 -1 0 -2
1052 351 4 -8.1999999999999995e-01 3.6457026866260063e+00 6.2277451336812018e-01 2.1404565639746636e+01 -1 0 1
7149 2383 3 4.0999999999999998e-01 8.5406973795651204e+00 1.7140363820673816e+00 2.6786107891406797e+01 1 2 -1
178 60 3 4.0999999999999998e-01 8.0146916463894158e+00 6.2380782894209599e+00 2.5962761659276801e+01 0 -2 2
395 132 4 -8.1999999999999995e-01 1.2218901339419024e+00 9.1882133964753052e+00 2.3362388493676111e+01 3 1 1
5146 1716 3 4.0999999999999998e-01 3.8547053038080379e+00 2.5429638092743985e+00 2.1192395444706062e+01 0 3 2
2388 796 3 4.0999999999999998e-01 4.8461164266696466e+00 5.9903149559683495e+00 2.6542194377232729e+01 1 -2 1
4929 1643 3 4.0999999999999998e-01 9.1441702732897934e+00 1.2694573769428077e+00 3.0273806026895368e+01 -1 -1 0
6158 2053 4 -8.1999999999999995e-01 4.1878844032944684e+00 5.7823109980143617e+00 2.4744426734374002e+01 3 0 -1
6010 2004 3 4.0999999999999998e-01 3.9539634248185860e+00 4.6412447608793439e-01 2.8593670515638539e+01 3 -1 1
2506 836 3 4.0999999999999998e-01 4.7261395791074090e+00 2.7997890514238049e+00 2.3610680717382415e+01 2 1 0
5784 1928 3 4.0999999999999998e-01 3.4129183364115248e+00 5.1412352855868821e+00 2.1831709110081402e+01 -1 1 0
6623 2208 4 -8.1999999999999995e-01 9.1338055232946562e+00 3.3815161882998979e+00 2.3403660192522967e+01 0 0 1
4194 1398 3 4.0999999999999998e-01 2.3896593744138324e+00 5.7828353874012670e+00 2.7286294868920390e+01 0 -1 0
2686 896 3 4.0999999999999998e-01 6.4810307561873843e+00 7.7298544962333464e+00 2.4694454548711104e+01 -1 5 1
1182 394 3 4.0999999999999998e-01 7.1520052727942183e+00 9.7114517446035133e+00 2.2703576906780135e+01 -3 -1 1
5491 1831 3 4.0999999999999998e-01 9.6011226906147904e+00 1.0037759914135387e+01 2.4529627506340258e+01 0 -2 -1
4193 1398 4 -8.1999999999999995e-01 2.1273259454690829e+00 5.9438983705354476e+00 2.6312531848197640e+01 0 -1 0
4928 1643 4 -8.1999999999999995e-01 8.9881792573709056e+00 3.0524807889477545e-01 3.0619328834875290e+01 -1 -1 0
1504 502 3 4.0999999999999998e-01 6.5163103657380743e+00 4.9188685567404420e+00 3.0372771720789856e+01 2 1 -3
4002 1334 3 4.0999999999999998e-01 4.5113288113954653e+00 7.7235767571819567e+00 3.0048265501089229e+01 1 1 1
1512 504 3 4.0999999999999998e-01 6.4949702769607711e+00 5.1158770007952414e+00 2.1598930056595741e+01 1 4 1
663 221 3 4.0999999999999998e-01 6.5208432511472250e+00 2.1165225804405661e+00 2.4807922262793998e+01 0 -1 0
661 221 3 4.0999999999999998e-01 7.9003851088276225e+00 1.9168896049437680e+00 2.3978721211024993e+01 0 -1 0
1511 504 4 -8.1999999999999995e-01 7.1914868916845309e+00 4.3705001535889929e+00 2.1687641471683285e+01 1 4 1
4192 1398 3 4.0999999999999998e-01 1.1031878999664195e+00 5.9745561474057443e+00 2.6207659049986290e+01 0 -1 0
2222 741 4 -8.1999999999999995e-01 5.0720474176588484e+00 1.4635782543055003e+00 2.9683638014037733e+01 -2 0 0
6522 2174 3 4.0999999999999998e-01 2.2913041577593578e+00 9.2727483790167098e-01 2.2545646702701813e+01 -1 0 -2
2000 667 4 -8.1999999999999995e-01 8.6196339025865161e+00 4.6807781198299594e+00 2.6039644978344292e+01 -2 0 -1
4689 1563 3 4.0999999999999998e-01 6.7837262333308725e+00 8.1372973095938530e+00 2.6650015484532130e+01 5 3 0
6789 2263 3 4.0999999999999998e-01 5.8147956572691173e-01 8.4343789506989122e+00 3.0275735165663029e+01 -1 0 -2
3303 1101 3 4.0999999999999998e-01 2.8825075556585609e+00 5.9069616945357795e-01 2.6316436686412398e+01 -3 1 -1
1283 428 4 -8.1999999999999995e-01 1.0145227894426528e+01 1.0017695778570130e+00 2.7792551923762595e+01 -3 2 -1
3936 1312 3 4.0999999999999998e-01 2.3393284554592428e+00 7.3528404176171662e+00 2.9841761760563710e+01 -1 -3 -3
6624 2208 3 4.0999999999999998e-01 9.8889538198382319e+00 2.8569164589460052e+00 2.2918286270810867e+01 0 0 1
662 221 4 -8.1999999999999995e-01 6.9339138095315009e+00 1.5611181445748139e+00 2.4098663891229485e+01 0 -1 0
1442 481 4 -8.1999999999999995e-01 9.4911756605163529e+00 7.7053867532279261e+00 2.1604672208780357e+01 1 1 0
3770 1257 4 -8.1999999999999995e-01 1.0056963354024527e+01 8.3256735387319214e+00 2.4216564642370784e+01 2 -1 0
2687 896 4 -8.1999999999999995e-01 5.4991626351497276e+00 7.9477610433544603e+00 2.4437453705196358e+01 -1 5 1
6787 2263 3 4.0999999999999998e-01 1.8480101472768837e-01 8.2353162085101825e+00 2.8514573693033675e+01 -1 0 -2
7273 2425 3 4.0999999999999998e-01 5.4494154828869268e-01 1.0425342309519060e+01 2.2656503830344437e+01 -1 0 -1
2223 741 3 4.0999999999999998e-01 5.8365355734751549e+00 8.5448233733325318e-01 2.9170281931924084e+01 -2 0 0
2387 796 4 -8.1999999999999995e-01 5.2459228710133550e+00 5.9898298798792640e+00 2.7488941767650854e+01 1 -2 1
5147 1716 4 -8.1999999999999995e-01 4.1560748529924423e+00 3.5298452342206348e+00 2.1279504708737157e+01 0 3 2
3771 1257 3 4.0999999999999998e-01 9.7017139213816392e+00 8.3125239037998888e+00 2.3262753557930520e+01 2 -1 0
394 132 3 4.0999999999999998e-01 2.1142470936774638e+00 9.5766745392529469e+00 2.3613158232731234e+01 3 1 1
6934 2312 3 4.0999999999999998e-01 3.0855009731193386e+00 5.1489341038421470e+00 2.9450399125050009e+01 5 1 2
1954 652 3 4.0999999999999998e-01 3.1355603586298614e-01 1.0769542717768836e+00 3.1370433432576259e+01 -2 -1 -1
6693 2231 3 4.0999999999999998e-01 8.3735030873501621e+00 3.6065248285571210e+00 2.9413636035147238e+01 2 0 -1
1591 531 3 4.0999999999999998e-01 3.1190266775948244e-01 5.7369644310255223e+00 2.9652246431760528e+01 -1 2 -3
6520 2174 3 4.0999999999999998e-01 1.7018746213311655e+00 8.6337139239488958e-01 2.4142066806790417e+01 -1 0 -2
1999 667 3 4.0999999999999998e-01 8.8962348592246094e+00 4.5513049580211300e+00 2.5026638910202010e+01 -2 0 -1