LAMMPS data file via write_data, version 5 Jun 2019, timestep = 16000000

7349 atoms
5 atom types
4899 bonds
2 bond types
2451 angles
2 angle types
1 impropers
1 improper types

1.5519297081455363e-01 4.1845807029189409e+01 xlo xhi
1.5469297081455124e-01 4.1845307029189406e+01 ylo yhi
1.5469297081455124e-01 4.1845307029189406e+01 zlo zhi

#Masses
#
#1 12.01
#2 40.08
#3 1.01
#4 16
#5 16
#
#Bond Coeffs # harmonic
#
#1 20.4246 1.3042
#2 22.965 1.012

Atoms # full

1411 471 3 4.0999999999999998e-01 4.9807171632108540e+00 7.6905492542850951e+00 9.7342349990355217e+00 -3 -2 2
6984 2328 3 4.0999999999999998e-01 5.2731960767832815e+00 2.5057722591160752e+00 2.1639861360177024e+00 1 -1 0
5382 1794 3 4.0999999999999998e-01 7.1777484118154034e+00 1.1203030411391166e+00 8.0817120986954301e+00 -3 -4 -1
7326 2442 3 4.0999999999999998e-01 8.3666551693662843e+00 6.6481582962068719e+00 7.4196962007835685e+00 2 0 -1
2291 764 4 -8.1999999999999995e-01 4.7778548499598026e+00 4.7507197419299869e+00 6.1228534612455867e+00 2 -2 5
6743 2248 4 -8.1999999999999995e-01 2.6129645876787444e-01 4.2523846505774445e+00 3.8928288629887189e+00 1 2 0
5832 1944 3 4.0999999999999998e-01 9.7506888383317154e+00 1.7315128344144810e+00 5.5307955568925742e+00 2 0 5
6758 2253 4 -8.1999999999999995e-01 7.4152382067815772e+00 2.3384290302694080e+00 6.9619374470347992e+00 -2 1 0
5823 1941 3 4.0999999999999998e-01 9.0703697798058212e+00 5.3398796135156665e+00 1.0471892318741356e+01 -1 0 5
2260 754 3 4.0999999999999998e-01 2.9772665854146401e+00 8.0170614107599310e+00 9.8074928447133587e+00 -1 -2 3
2997 999 3 4.0999999999999998e-01 7.4433643343304015e+00 5.3434047900622295e-01 4.4028688891251813e+00 -1 3 -2
214 72 3 4.0999999999999998e-01 2.9809670950578901e+00 1.0187138733279413e+01 1.0130754975237712e+01 3 0 2
7324 2442 3 4.0999999999999998e-01 9.4170297099862452e+00 7.1508240570232475e+00 6.2942141540473511e+00 2 0 -1
5934 1978 3 4.0999999999999998e-01 6.3305980136568669e+00 1.0075707563227176e+01 3.4077155079378252e+00 -5 3 -5
1354 452 3 4.0999999999999998e-01 9.6359400947252087e+00 8.6003979735868423e+00 1.9379167347165800e+00 -3 -4 -1
6484 2162 3 4.0999999999999998e-01 5.8051919791950350e+00 5.7319086085480171e+00 7.7193878577311610e+00 -2 -2 4
5830 1944 3 4.0999999999999998e-01 9.5851832914429558e+00 1.9739405657305764e+00 7.1613961259449965e+00 2 0 5
7325 2442 4 -8.1999999999999995e-01 9.3631611163784854e+00 6.7157698182038565e+00 7.2011248454484527e+00 2 0 -1
641 214 4 -8.1999999999999995e-01 4.9119308445130843e+00 7.3372548799570558e-01 5.2312684817343857e+00 -2 1 1
6485 2162 4 -8.1999999999999995e-01 6.6811080849732312e+00 5.9339296645670139e+00 8.1627157253085194e+00 -2 -2 4
5929 1977 3 4.0999999999999998e-01 2.1166882220072534e+00 1.0242240448187061e+01 5.7304254260011001e-01 1 -2 2
3869 1290 4 -8.1999999999999995e-01 7.3976006017184899e+00 9.6011781238885163e+00 4.0477311853051567e-01 5 2 -2
3427 1143 3 4.0999999999999998e-01 4.0765510063172830e+00 7.8149171839546483e+00 5.3648791317417057e+00 -3 -1 2
5252 1751 4 -8.1999999999999995e-01 1.8899419709843115e+00 3.0467496751748508e+00 1.5434044194275951e+00 1 -2 0
6555 2185 3 4.0999999999999998e-01 4.8916522759166154e+00 9.8268909814022436e+00 6.7607429228754459e+00 -1 2 -3
6516 2172 3 4.0999999999999998e-01 4.3597978115253246e+00 2.9803272162917529e+00 7.3762390115750165e+00 1 2 1
7181 2394 4 -8.1999999999999995e-01 2.2799047232869496e+00 5.5867663588275205e+00 5.1478514609456676e+00 2 2 -3
5330 1777 4 -8.1999999999999995e-01 2.7062581261818669e-01 7.7840235482410352e+00 1.6723543999249322e+00 -3 -1 -1
5604 1868 3 4.0999999999999998e-01 4.1926211661711976e+00 7.5129877935130258e+00 9.9302791187095441e-01 2 2 4
2996 999 4 -8.1999999999999995e-01 8.0671539116470754e+00 1.3368396450860571e+00 4.5120406039456942e+00 -1 3 -2
4098 1366 3 4.0999999999999998e-01 1.0121638649156781e+01 6.4868207854685362e+00 1.3117841081891517e+00 1 3 5
2290 764 3 4.0999999999999998e-01 3.8931471652882830e+00 5.1280208051647653e+00 5.8058780404266992e+00 2 -2 5
4817 1606 4 -8.1999999999999995e-01 9.7988610359407762e+00 7.7265028465185228e+00 4.8707982609123563e+00 0 2 1
6486 2162 3 4.0999999999999998e-01 6.5761142166357462e+00 6.7802307521148730e+00 8.7523156726814033e+00 -2 -2 4
6982 2328 3 4.0999999999999998e-01 3.6858142042899473e+00 2.3918653333137505e+00 1.8124825497968486e+00 1 -1 0
6583 2195 3 4.0999999999999998e-01 7.7099386853584306e+00 6.6754864761823400e+00 4.9541007109471957e+00 3 2 0
1350 450 3 4.0999999999999998e-01 3.7114246901119836e+00 7.4057884348985761e+00 3.3234042859440676e+00 4 2 1
442 148 3 4.0999999999999998e-01 5.7277300382295850e+00 3.7503999809505668e+00 4.4734225208233847e+00 0 -1 3
1356 452 3 4.0999999999999998e-01 9.3964899763931520e+00 7.7355166834448896e+00 3.3237595123316250e+00 -3 -4 -1
221 74 4 -8.1999999999999995e-01 2.1962989775481478e+00 5.6536824072772198e+00 1.0506169390013547e+00 0 -4 -3
5871 1957 3 4.0999999999999998e-01 3.1298679516709855e+00 8.4134511264056377e-01 8.2700827906532091e+00 0 -3 -2
7180 2394 3 4.0999999999999998e-01 1.4996910562820094e+00 5.1369538385046285e+00 4.6333778241043184e+00 2 2 -3
2262 754 3 4.0999999999999998e-01 2.7962702754020059e+00 6.7472266241228720e+00 8.8029777747494471e+00 -1 -2 3
347 116 4 -8.1999999999999995e-01 7.3542199328504685e+00 9.5638058831475448e+00 8.7202177061044175e+00 5 4 -2
1349 450 4 -8.1999999999999995e-01 3.1688532186812663e+00 7.7807855488053193e+00 4.1043823966071162e+00 4 2 1
6585 2195 3 4.0999999999999998e-01 6.7914073306598963e+00 6.1027266346043421e+00 3.7034643976019490e+00 3 2 0
6930 2310 3 4.0999999999999998e-01 9.4879410730395968e+00 3.9567300299668036e+00 2.8395800330432701e+00 -2 -1 -4
5822 1941 4 -8.1999999999999995e-01 8.0825702601474365e+00 4.9984911720559388e+00 1.0401493598926557e+01 -1 0 5
2404 802 3 4.0999999999999998e-01 4.8788464518176458e+00 6.9480052521858870e-01 5.8249420496707338e-01 0 -4 -1
6742 2248 3 4.0999999999999998e-01 5.2303879136364306e-01 3.5346878462994198e+00 3.1505268118861220e+00 1 2 0
6087 2029 3 4.0999999999999998e-01 1.0284639816733385e+01 3.5947828884669177e+00 5.0684251331905577e+00 -1 0 -1
1185 395 3 4.0999999999999998e-01 2.1191162493809017e+00 7.2819577747209885e-01 2.9607904597496022e+00 -1 0 0
5931 1977 3 4.0999999999999998e-01 1.1321308791049260e+00 8.9140389942068818e+00 6.2868834040470578e-01 1 -2 2
6850 2284 3 4.0999999999999998e-01 1.0259146817085378e+01 9.4391476452569489e-01 3.2547327829769399e+00 1 1 3
6553 2185 3 4.0999999999999998e-01 6.3172666152990704e+00 1.0240463778896856e+01 7.4964212647941677e+00 -1 2 -3
6554 2185 4 -8.1999999999999995e-01 5.3890955785761792e+00 1.0570631839413938e+01 7.2285332512561746e+00 -1 2 -3
348 116 3 4.0999999999999998e-01 8.1758951883087239e+00 8.9217248660389092e+00 8.9399786970024664e+00 5 4 -2
642 214 3 4.0999999999999998e-01 3.9269392910195653e+00 7.6569959763578066e-01 4.8407730679209600e+00 -2 1 1
3428 1143 4 -8.1999999999999995e-01 4.8165397925813354e+00 7.7590369023391759e+00 6.0902911121601040e+00 -3 -1 2
5324 1775 4 -8.1999999999999995e-01 1.0919234571665168e+00 1.1837731539849059e+00 6.0715888912049021e+00 1 -1 -1
7285 2429 3 4.0999999999999998e-01 1.0253729279939190e+00 5.3618201487863875e+00 8.1891159853492912e+00 0 2 1
6638 2213 4 -8.1999999999999995e-01 7.1826144823759446e+00 6.0164046739160435e+00 2.0898512842785184e+00 1 0 -1
7286 2429 4 -8.1999999999999995e-01 1.4770899593212721e+00 6.2514661901397366e+00 7.8498642592517864e+00 0 2 1
6757 2253 3 4.0999999999999998e-01 6.6173216091012517e+00 2.9649680987341820e+00 6.8639982401879163e+00 -2 1 0
6584 2195 4 -8.1999999999999995e-01 6.8044842758975754e+00 6.2508311239470160e+00 4.7433999294546876e+00 3 2 0
6514 2172 3 4.0999999999999998e-01 4.8130204106345458e+00 1.4768781357601819e+00 6.8833155051826447e+00 1 2 1
1348 450 3 4.0999999999999998e-01 2.5976575917990572e+00 7.0365838018167848e+00 4.5873674004969134e+00 4 2 1
5331 1777 3 4.0999999999999998e-01 5.2916850994613718e-01 7.1564975444548686e+00 2.4877482915265468e+00 -3 -1 -1
222 74 3 4.0999999999999998e-01 2.6965623551078290e+00 6.2562128252552380e+00 1.6655379143413285e+00 0 -4 -3
5381 1794 4 -8.1999999999999995e-01 7.1712306933099450e+00 3.7402341437008735e-01 8.8138212306707295e+00 -3 -4 -1
6759 2253 3 4.0999999999999998e-01 7.9123930618672826e+00 2.1095167278946034e+00 6.0048150810164760e+00 -2 1 0
2261 754 4 -8.1999999999999995e-01 3.3449695039488114e+00 7.0556604664830722e+00 9.6145836061484218e+00 -1 -2 3
6983 2328 4 -8.1999999999999995e-01 4.5597658414960378e+00 1.9714210142631619e+00 1.6453399501680479e+00 1 -1 0
220 74 3 4.0999999999999998e-01 1.9523141911417361e+00 6.2244318119532940e+00 2.3444371271361772e-01 0 -4 -3
6637 2213 3 4.0999999999999998e-01 7.8240621812307447e+00 6.8579618864624008e+00 1.9568758682932685e+00 1 0 -1
5253 1751 3 4.0999999999999998e-01 1.0119872775110008e+00 2.6088946766090806e+00 1.1213668594449950e+00 1 -2 0
5821 1941 3 4.0999999999999998e-01 7.7495897812995693e+00 5.2226057051117651e+00 9.4550487061125157e+00 -1 0 5
7182 2394 3 4.0999999999999998e-01 2.0889971867107930e+00 5.4416768380015377e+00 6.1384332434650091e+00 2 2 -3
443 148 4 -8.1999999999999995e-01 5.9926026986094900e+00 3.1081606848394059e+00 3.7246708074005426e+00 0 -1 3
2995 999 3 4.0999999999999998e-01 7.8353387963747911e+00 2.0045214943120726e+00 3.7702552131348579e+00 -1 3 -2
5603 1868 4 -8.1999999999999995e-01 4.6743802372648373e+00 7.2657612516580539e+00 1.9021434493884153e+00 2 2 4
6515 2172 4 -8.1999999999999995e-01 4.2770184009018148e+00 1.9992868087437803e+00 7.5567140018312164e+00 1 2 1
5251 1751 3 4.0999999999999998e-01 1.7962335725293859e+00 4.0641386019300612e+00 1.3569059463263740e+00 1 -2 0
444 148 3 4.0999999999999998e-01 5.6180933819042389e+00 2.1924122534375994e+00 4.0034890879149714e+00 0 -1 3
7287 2429 3 4.0999999999999998e-01 8.9381221020281065e-01 7.0114482096290933e+00 8.1576819002223466e+00 0 2 1
6928 2310 3 4.0999999999999998e-01 8.1507496263696648e+00 4.5527788564021483e+00 2.0067234376666456e+00 -2 -1 -4
5602 1868 3 4.0999999999999998e-01 5.2482850298694945e+00 8.1564328597469391e+00 2.2636168518400339e+00 2 2 4
2284 762 3 4.0999999999999998e-01 1.0040425640532343e+01 7.6748006247022653e+00 1.0193006259847268e+01 3 2 2
2292 764 3 4.0999999999999998e-01 5.4829675424317115e+00 5.4806050907605748e+00 5.8197797922057752e+00 2 -2 5
5325 1775 3 4.0999999999999998e-01 1.5842687210288635e+00 1.0689963743216628e+00 5.1448912900856678e+00 1 -1 -1
547 183 3 4.0999999999999998e-01 3.6713248511790999e+00 9.7312672168910925e+00 4.3497674415452616e+00 2 0 0
5933 1978 4 -8.1999999999999995e-01 6.0186929017429156e+00 9.3490535830047516e+00 2.7362444333733866e+00 -5 3 -5
5323 1775 3 4.0999999999999998e-01 9.6572401859452461e-01 2.9010367745854387e-01 6.5239656095892471e+00 1 -1 -1
5185 1729 3 4.0999999999999998e-01 6.0516213420254603e+00 9.9159062941867637e-01 9.9343654552262191e+00 -5 -4 4
1412 471 4 -8.1999999999999995e-01 5.9300384523140233e+00 7.9225739566015170e+00 1.0024647125698113e+01 -3 -2 2
6639 2213 3 4.0999999999999998e-01 6.2387846496910573e+00 6.2209638980870041e+00 1.7222366793929915e+00 1 0 -1
6929 2310 4 -8.1999999999999995e-01 8.7137237669312402e+00 3.6657807177335484e+00 2.2186927860078769e+00 -2 -1 -4
346 116 3 4.0999999999999998e-01 6.7175937250309810e+00 8.9446678894043359e+00 9.2410397130047688e+00 5 4 -2
215 72 4 -8.1999999999999995e-01 2.3495830203864694e+00 9.4238764377704634e+00 1.0398249233057676e+01 3 0 2
2285 762 4 -8.1999999999999995e-01 9.3473294726564813e+00 8.0911193549801883e+00 9.5354924898483482e+00 3 2 2
5831 1944 4 -8.1999999999999995e-01 1.0217477671479505e+01 2.0622097150578820e+00 6.3494097652033679e+00 2 0 5
1355 452 4 -8.1999999999999995e-01 9.2477479478738278e+00 7.7128108934642645e+00 2.2880069292902858e+00 -3 -4 -1
2286 762 3 4.0999999999999998e-01 9.4315007241750717e+00 7.6338257837498320e+00 8.5792974716155523e+00 3 2 2
5932 1978 3 4.0999999999999998e-01 6.5247997505494109e+00 9.4043911044611104e+00 1.8616513893951889e+00 -5 3 -5
3429 1143 3 4.0999999999999998e-01 5.6634937437479476e+00 7.3305306070539071e+00 5.7053792783811312e+00 -3 -1 2
6852 2284 3 4.0999999999999998e-01 1.0516267090483948e+01 2.5140701390784854e+00 2.7438937433650676e+00 1 1 3
4816 1606 3 4.0999999999999998e-01 1.0244166754876893e+01 8.5732298808706631e+00 5.2955445701450996e+00 0 2 1
6735 2245 3 4.0999999999999998e-01 8.8145019237763194e+00 2.8586042248307777e+00 7.7056120720686549e-01 1 3 1
4887 1629 3 4.0999999999999998e-01 8.0244379102746386e+00 3.1438124721675242e-01 1.0314107910224800e+01 -1 -3 -1
103 35 3 4.0999999999999998e-01 3.6121662934957421e-01 8.0439101098646670e-01 1.0589464304313387e+00 1 -1 2
1184 395 4 -8.1999999999999995e-01 2.5256970358604369e+00 5.9221016351595890e-01 3.9379397836019820e+00 -1 0 0
216 72 3 4.0999999999999998e-01 1.4358831113493344e+00 9.8157243173392761e+00 1.0202241930398229e+01 3 0 2
6086 2029 4 -8.1999999999999995e-01 1.0534533398914270e+01 3.8697964834426619e+00 4.1206014895104488e+00 -1 0 -1
4818 1606 3 4.0999999999999998e-01 1.0555836166024717e+01 7.0946062822341807e+00 4.5822413395125947e+00 0 2 1
3937 1313 3 4.0999999999999998e-01 9.0631547221052280e+00 2.1743805975721600e+00 1.7374372904242716e+01 0 3 -1
4073 1358 4 -8.1999999999999995e-01 1.4924361756072602e+00 7.4937160837787129e+00 1.6068741257502158e+01 1 -1 1
4228 1410 3 4.0999999999999998e-01 4.3864827967315074e+00 9.3709874697389459e+00 1.5999578838331292e+01 2 0 -2
2912 971 4 -8.1999999999999995e-01 2.6281686884400965e+00 1.2940011554311290e+00 1.1649295485022083e+01 -2 -4 4
2911 971 3 4.0999999999999998e-01 2.3783914714607164e+00 2.2409691056302141e+00 1.1623508394509400e+01 -2 -4 4
902 301 4 -8.1999999999999995e-01 6.0873289135768118e+00 6.6337246420752685e+00 1.7255078401775407e+01 4 0 0
5020 1674 3 4.0999999999999998e-01 1.4281680420452669e+00 3.9577518304159818e+00 1.2362125584000637e+01 3 -3 -3
5483 1828 4 -8.1999999999999995e-01 8.3599430418664618e+00 6.9066520468537425e+00 2.0869151462970159e+01 -1 -1 3
7104 2368 3 4.0999999999999998e-01 5.6163790735529240e+00 1.2245990091783849e+00 1.8966602060543199e+01 -1 -2 6
2420 807 4 -8.1999999999999995e-01 7.5820768994454140e+00 5.7089681811498121e+00 1.5163617804354923e+01 -1 -4 -1
411 137 3 4.0999999999999998e-01 3.5767779607843422e+00 4.7290624857232046e+00 1.9069272458114813e+01 1 -3 0
4497 1499 3 4.0999999999999998e-01 3.5942117117964334e+00 8.8574213846933620e+00 1.8177123953611598e+01 -2 3 0
2205 735 3 4.0999999999999998e-01 5.2333960456735591e+00 4.3751949984213381e+00 1.5251347000060123e+01 2 -5 1
4787 1596 4 -8.1999999999999995e-01 9.8816594765626675e+00 9.1462644380592337e+00 1.4259484358217573e+01 0 0 -4
2964 988 3 4.0999999999999998e-01 5.0122852722855251e+00 9.3735346204807914e+00 1.3536742848110075e+01 0 -1 -1
6240 2080 3 4.0999999999999998e-01 8.5939833186710612e-01 7.0708578403600395e+00 1.2832439470335826e+01 6 0 -1
1626 542 3 4.0999999999999998e-01 2.0756869345584246e+00 9.4293977174781212e+00 1.3920404263157877e+01 -1 0 1
6159 2053 3 4.0999999999999998e-01 2.5369505193291593e+00 6.2191070223893243e+00 2.0192588287141238e+01 4 0 -1
154 52 3 4.0999999999999998e-01 5.9352537641345204e+00 2.8283922393888998e+00 1.1505549707492706e+01 2 0 1
2962 988 3 4.0999999999999998e-01 5.7100555567544289e+00 8.0726233756409727e+00 1.3007485517214494e+01 0 -1 -1
1206 402 3 4.0999999999999998e-01 6.2975850084273608e+00 6.1666500258586003e+00 1.8800396450933860e+01 1 -1 2
3306 1102 3 4.0999999999999998e-01 3.3602533622842828e-01 1.0444930450438363e+01 1.5487695321820778e+01 -2 3 0
7256 2419 4 -8.1999999999999995e-01 3.7040654493930831e+00 5.4858354156582489e+00 1.5670652298811099e+01 -2 3 5
6339 2113 3 4.0999999999999998e-01 9.9247983765845760e+00 2.6698620669975415e+00 1.2462514380538385e+01 2 3 2
3520 1174 3 4.0999999999999998e-01 7.6502408258241008e+00 7.4606260455558795e+00 1.7783964725546635e+01 -5 2 0
4495 1499 3 4.0999999999999998e-01 4.9174056367080778e+00 7.9397427679330015e+00 1.7463300023643185e+01 -2 3 0
3939 1313 3 4.0999999999999998e-01 8.5652281567747632e+00 1.9770477459204150e+00 1.8989599893323735e+01 0 3 -1
3221 1074 4 -8.1999999999999995e-01 1.0014603596034185e+01 4.5862114242940981e+00 1.9742360222567509e+01 -2 -1 4
4072 1358 3 4.0999999999999998e-01 7.7250192733065948e-01 8.0660221459280201e+00 1.6526345289365835e+01 1 -1 1
5766 1922 3 4.0999999999999998e-01 3.4928671880213624e-01 7.3888818735604271e+00 1.9365277758360790e+01 1 -3 -1
2944 982 3 4.0999999999999998e-01 2.6905646121930555e+00 2.1351833772104878e+00 1.7184126048162305e+01 0 0 2
4850 1617 4 -8.1999999999999995e-01 1.0572839392549687e+01 1.9009588316225816e+00 1.6204639268789517e+01 2 2 0
6041 2014 4 -8.1999999999999995e-01 5.9062149625953841e+00 2.6688785360175298e+00 1.8112684585199009e+01 1 -4 2
410 137 4 -8.1999999999999995e-01 3.6340091105026446e+00 4.4506331587899455e+00 1.8079333609525925e+01 1 -3 0
2421 807 3 4.0999999999999998e-01 7.5315463011214288e+00 4.6789676260515778e+00 1.5233476906156621e+01 -1 -4 -1
1577 526 4 -8.1999999999999995e-01 4.0960506567040769e+00 2.7332620487418677e+00 2.0432089345323970e+01 -1 2 0
1591 531 3 4.0999999999999998e-01 1.6269321967659531e+00 2.9805239164348261e+00 1.4998805787946191e+01 -3 3 0
155 52 4 -8.1999999999999995e-01 6.1653073585959008e+00 3.5993662510500868e+00 1.2104952877394073e+01 2 0 1
554 185 4 -8.1999999999999995e-01 8.3624360406266547e+00 1.5198213721761280e+00 2.0452454091711850e+01 0 2 0
7103 2368 4 -8.1999999999999995e-01 5.6830617870506259e+00 3.7653427585835003e-01 1.9464273342844333e+01 -1 -2 6
538 180 3 4.0999999999999998e-01 6.8847836298333043e+00 9.7406145189382853e-01 1.6291178512637789e+01 -2 2 2
3845 1282 4 -8.1999999999999995e-01 4.5792978527569685e+00 5.3789227722283539e-01 1.3809895463649671e+01 5 -2 -3
2609 870 4 -8.1999999999999995e-01 2.5614730572761681e+00 1.5874208852840088e+00 1.5369349017309656e+01 2 -2 0
4074 1358 3 4.0999999999999998e-01 2.4341887879235737e+00 7.8751634397810761e+00 1.6192417540700408e+01 1 -1 1
2204 735 4 -8.1999999999999995e-01 5.8771115520198753e+00 3.6940757616771576e+00 1.4774984859232319e+01 2 -5 1
2945 982 4 -8.1999999999999995e-01 2.4982004028231271e+00 1.9225613882038761e+00 1.8164464666928399e+01 0 0 2
815 272 4 -8.1999999999999995e-01 2.4267182526332904e+00 7.9965833647396263e+00 1.3010310825407249e+01 2 -2 1
3938 1313 4 -8.1999999999999995e-01 8.5717211568322558e+00 2.5893570752401875e+00 1.8162491719309720e+01 0 3 -1
3817 1273 3 4.0999999999999998e-01 6.3882243666433318e+00 1.0292450016621324e+01 1.5215422404732950e+01 -1 -1 1
5187 1729 3 4.0999999999999998e-01 4.5456969852976794e+00 1.3160582491709918e+00 1.0651700655960237e+01 -5 -4 4
5765 1922 4 -8.1999999999999995e-01 9.9063125639360528e-01 6.8308323657444152e+00 1.9929270206258007e+01 1 -3 -1
2256 752 3 4.0999999999999998e-01 8.3617378231279691e+00 1.0329390377180683e+01 1.6553073609701944e+01 -3 1 -3
1592 531 4 -8.1999999999999995e-01 1.6256600888602393e+00 3.8729943539645992e+00 1.4416205160375700e+01 -3 3 0
1950 650 3 4.0999999999999998e-01 6.6478120574911932e+00 4.5277054139851147e+00 2.0610208757709657e+01 0 1 2
2963 988 4 -8.1999999999999995e-01 5.4616580968498365e+00 8.9933699972665568e+00 1.2672926901115426e+01 0 -1 -1
1679 560 4 -8.1999999999999995e-01 8.5879598046719217e+00 9.6495242965902914e+00 1.1979861396106443e+01 -2 0 1
1578 526 3 4.0999999999999998e-01 3.8023643867905719e+00 2.1172588639364109e+00 1.9695257131429557e+01 -1 2 0
6158 2053 4 -8.1999999999999995e-01 3.5722885096485562e+00 6.0595362260301515e+00 2.0412975525525322e+01 4 0 -1
4496 1499 4 -8.1999999999999995e-01 4.0032748758464649e+00 8.4644300304910303e+00 1.7285122180087399e+01 -2 3 0
1205 402 4 -8.1999999999999995e-01 6.2995561029015459e+00 5.9478122576543067e+00 1.9796496193688412e+01 1 -1 2
1120 374 3 4.0999999999999998e-01 5.2129613485912629e-01 5.1863668016064572e+00 1.8036332073700667e+01 -1 0 6
1593 531 3 4.0999999999999998e-01 2.6090581945189295e+00 4.1707821652641890e+00 1.4535137341055483e+01 -3 3 0
4132 1378 3 4.0999999999999998e-01 6.7199606074071783e+00 6.0026806836951900e+00 1.2419395010466699e+01 1 -1 -2
2203 735 3 4.0999999999999998e-01 5.5915946679224904e+00 3.5881119651911959e+00 1.3799586822251145e+01 2 -5 1
2913 971 3 4.0999999999999998e-01 1.9307428106316964e+00 6.0164838457100800e-01 1.1512304245816674e+01 -2 -4 4
2419 807 3 4.0999999999999998e-01 7.1155954485311641e+00 6.0883255464178649e+00 1.4328381304634027e+01 -1 -4 -1
2254 752 3 4.0999999999999998e-01 8.9369889306700721e+00 9.0978662380158095e+00 1.7419906693213346e+01 -3 1 -3
901 301 3 4.0999999999999998e-01 6.7963932019447171e+00 6.4920583990302569e+00 1.6543639245425773e+01 4 0 0
5022 1674 3 4.0999999999999998e-01 1.1104797127119299e+00 3.8496603073283691e+00 1.0739160056529908e+01 3 -3 -3
7257 2419 3 4.0999999999999998e-01 3.6397541610681170e+00 5.1858866992685053e+00 1.6689087937197385e+01 -2 3 5
4786 1596 3 4.0999999999999998e-01 9.3444702270007944e+00 9.4501702231596028e+00 1.5076799625652797e+01 0 0 -4
4134 1378 3 4.0999999999999998e-01 5.3344744476172226e+00 5.9037424587857794e+00 1.3123768283724873e+01 1 -1 -2
3844 1282 3 4.0999999999999998e-01 3.9720380623196223e+00 9.6892303118161116e-01 1.3144334154358361e+01 5 -2 -3
1204 402 3 4.0999999999999998e-01 5.2528791872238223e+00 5.9895799201378335e+00 2.0051214248232906e+01 1 -1 2
3083 1028 4 -8.1999999999999995e-01 1.0221003315444932e+01 6.4680082905130227e+00 1.5470776674612422e+01 1 -1 -1
7255 2419 3 4.0999999999999998e-01 3.0033718748308176e+00 6.1779120539042500e+00 1.5495305653776038e+01 -2 3 5
6042 2014 3 4.0999999999999998e-01 5.5041093196884630e+00 3.6122287880612984e+00 1.8267275255538109e+01 1 -4 2
5021 1674 4 -8.1999999999999995e-01 1.8167960430013248e+00 3.7184720256830999e+00 1.1442009454997436e+01 3 -3 -3
1680 560 3 4.0999999999999998e-01 8.0623960919398883e+00 1.0486409189025068e+01 1.1817362353679233e+01 -2 0 1
5186 1729 4 -8.1999999999999995e-01 5.5496336029718414e+00 1.4385731591770792e+00 1.0748081969306993e+01 -5 -4 4
4885 1629 3 4.0999999999999998e-01 9.0199046425246650e+00 7.5747068629130521e-01 1.1779742222261531e+01 -1 -3 -1
814 272 3 4.0999999999999998e-01 2.8144403057716194e+00 7.0322600263241384e+00 1.2871554696713245e+01 2 -2 1
903 301 3 4.0999999999999998e-01 5.3666754602577287e+00 6.1897052211080119e+00 1.6651723601269428e+01 4 0 0
6040 2014 3 4.0999999999999998e-01 6.9424341810154226e+00 2.6790501557581310e+00 1.8216868018336342e+01 1 -4 2
539 180 4 -8.1999999999999995e-01 6.8089956859146428e+00 1.0998363162398415e+00 1.5318891549699559e+01 -2 2 2
1413 471 3 4.0999999999999998e-01 5.9514834662584963e+00 8.2108994950066219e+00 1.0997359260909739e+01 -3 -2 2
2946 982 3 4.0999999999999998e-01 1.5990970371568662e+00 1.4779309426991896e+00 1.8361382983965015e+01 0 0 2
3521 1174 4 -8.1999999999999995e-01 8.5252322589271134e+00 7.8788090082651943e+00 1.8155490014462899e+01 -5 2 0
4788 1596 3 4.0999999999999998e-01 9.4192791555107842e+00 9.3909740985200276e+00 1.3375132898894289e+01 0 0 -4
3522 1174 3 4.0999999999999998e-01 8.6966461973562375e+00 7.5131418287422704e+00 1.9096766196821225e+01 -5 2 0
540 180 3 4.0999999999999998e-01 6.7523447028250230e+00 2.1074394785583235e+00 1.5202610526606502e+01 -2 2 2
2610 870 3 4.0999999999999998e-01 1.8013806997507897e+00 9.0492133479612991e-01 1.5042153283288602e+01 2 -2 0
2608 870 3 4.0999999999999998e-01 3.4875076710604631e+00 1.0810052081796393e+00 1.5198567911053518e+01 2 -2 0
156 52 3 4.0999999999999998e-01 6.8115838138869540e+00 4.2488864296264257e+00 1.1541570266620097e+01 2 0 1
409 137 3 4.0999999999999998e-01 2.9937069409736359e+00 3.6751967130916716e+00 1.7920697407464878e+01 1 -3 0
5764 1922 3 4.0999999999999998e-01 1.0426591750671155e+00 7.2120891673381058e+00 2.0898325503816970e+01 1 -3 -1
1122 374 3 4.0999999999999998e-01 5.6068963536366156e-01 6.1988799384379050e+00 1.6793714243655359e+01 -1 0 6
6338 2113 4 -8.1999999999999995e-01 1.0403443323219452e+01 1.7663166219348923e+00 1.2429516993942334e+01 2 3 2
2255 752 4 -8.1999999999999995e-01 9.1884696990231394e+00 1.0096446437263948e+01 1.7147666808535440e+01 -3 1 -3
4133 1378 4 -8.1999999999999995e-01 6.1737858353197437e+00 6.4634721699266704e+00 1.3139949825008888e+01 1 -1 -2
1625 542 4 -8.1999999999999995e-01 1.5970804748241449e+00 1.0295672114997899e+01 1.4129657372603036e+01 -1 0 1
816 272 3 4.0999999999999998e-01 2.8296830199355743e+00 8.5291773553172163e+00 1.2256218027463426e+01 2 -2 1
3084 1028 3 4.0999999999999998e-01 9.2266297449801673e+00 6.1596952068684416e+00 1.5594687540430554e+01 1 -1 -1
4115 1372 4 -8.1999999999999995e-01 3.5826982322826888e+00 5.9264635574845865e+00 1.2063168666672347e+01 0 -2 -1
3222 1074 3 4.0999999999999998e-01 9.2409751681729091e+00 5.2333474708884475e+00 2.0040520859865627e+01 -2 -1 4
3082 1028 3 4.0999999999999998e-01 1.0274635866735098e+01 7.3293389700044962e+00 1.4964562929796166e+01 1 -1 -1
4116 1372 3 4.0999999999999998e-01 3.0679441567527173e+00 5.0271103435366662e+00 1.2128306107475035e+01 0 -2 -1
3220 1074 3 4.0999999999999998e-01 9.5966796357673037e+00 3.9876884742157959e+00 1.9000838762626465e+01 -2 -1 4
5482 1828 3 4.0999999999999998e-01 7.3982469348407429e+00 6.6313993554738095e+00 2.0492362807864684e+01 -1 -1 3
4229 1410 4 -8.1999999999999995e-01 4.4724317633272861e+00 1.0006872773138015e+01 1.5165793026749263e+01 2 0 -2
553 185 3 4.0999999999999998e-01 7.6986210951038894e+00 2.3792380010321539e+00 2.0585862712795972e+01 0 2 0
3846 1282 3 4.0999999999999998e-01 5.3994008661774071e+00 1.0837335272420392e+00 1.4101298184230222e+01 5 -2 -3
4114 1372 3 4.0999999999999998e-01 3.5616788269901871e+00 6.4237816179381992e+00 1.1180945969221337e+01 0 -2 -1
2096 699 4 -8.1999999999999995e-01 3.0200052305277247e+00 1.0244445034552838e+01 1.9232297370805906e+01 2 -3 6
1948 650 3 4.0999999999999998e-01 5.8657279769028845e+00 3.0591893179919332e+00 2.0908972927712924e+01 0 1 2
1678 560 3 4.0999999999999998e-01 8.6599312161473634e+00 9.0340952995219563e+00 1.1185262089079631e+01 -2 0 1
2097 699 3 4.0999999999999998e-01 3.3151236654865892e+00 1.0402075344615545e+01 2.0186320160198999e+01 2 -3 6
4230 1410 3 4.0999999999999998e-01 3.5311063229567052e+00 1.0247525663602424e+01 1.4929798923319922e+01 2 0 -2
971 324 4 -8.1999999999999995e-01 3.3232763397743742e-01 1.5182212619772080e+00 2.0999338147586833e+01 -1 2 1
2809 937 3 4.0999999999999998e-01 1.7402410365766485e-01 4.6619070515187682e+00 1.4629802978283054e+01 0 -1 -3
1949 650 4 -8.1999999999999995e-01 6.7627805071432290e+00 3.6268031581168456e+00 2.1102293956106074e+01 0 1 2
6875 2292 4 -8.1999999999999995e-01 6.3380077374564738e+00 9.0934592870674926e+00 2.7760896970672952e+01 -2 2 2
6704 2235 4 -8.1999999999999995e-01 1.3773700588125295e+00 5.0684047509668160e+00 2.8713068882857790e+01 -1 -1 -2
7204 2402 3 4.0999999999999998e-01 8.5193590333570182e+00 4.6149892791414651e+00 3.1268123579594938e+01 -3 4 -2
5572 1858 3 4.0999999999999998e-01 9.1672013247051289e+00 9.2208659157000838e-01 2.4362052698715036e+01 4 -3 -1
3255 1085 3 4.0999999999999998e-01 6.2333271827758345e+00 1.0486331276186258e+01 2.1258268505591442e+01 2 2 -4
7034 2345 4 -8.1999999999999995e-01 1.0067687883624759e+01 3.5484117527806114e+00 2.8592301536198267e+01 -1 3 -2
987 329 3 4.0999999999999998e-01 3.7627744594886781e+00 1.0714587357291883e+00 2.8412627298751691e+01 1 -2 1
6874 2292 3 4.0999999999999998e-01 6.8483961895986845e+00 9.6326080546370889e+00 2.7090267782400637e+01 -2 2 2
6362 2121 4 -8.1999999999999995e-01 3.2623424906623968e+00 1.0120279705108583e+01 2.2311356113362720e+01 0 0 2
1999 667 3 4.0999999999999998e-01 6.2248492203514374e+00 1.1417519171949759e+00 2.9094662400628287e+01 -4 -1 -2
1595 532 4 -8.1999999999999995e-01 9.4839040721586052e+00 5.9290369804492231e+00 2.9565644195556146e+01 -3 2 -1
2349 783 3 4.0999999999999998e-01 3.6580332357498526e+00 8.4254989023647155e+00 2.5422783673287615e+01 -5 2 4
2709 903 3 4.0999999999999998e-01 1.5247852241189259e+00 7.3301797900509336e-01 2.2010334451603654e+01 -1 3 -4
1926 642 3 4.0999999999999998e-01 7.1457898668110298e+00 7.4204637189498159e+00 2.3590485121584628e+01 0 3 2
6363 2121 3 4.0999999999999998e-01 4.1930074703824571e+00 9.8945253139430758e+00 2.1890767464783167e+01 0 0 2
1594 532 3 4.0999999999999998e-01 1.0050179079941282e+01 6.6990069064448647e+00 2.9885550072045131e+01 -3 2 -1
2347 783 3 4.0999999999999998e-01 3.1993540157166227e+00 9.2317011298384166e+00 2.3998808817093035e+01 -5 2 4
5711 1904 4 -8.1999999999999995e-01 6.3630624386524417e+00 8.5986704665066664e+00 3.0815354718621869e+01 0 -3 -3
2740 914 3 4.0999999999999998e-01 6.5357298877243277e+00 3.7196514535181056e+00 2.4319580622139227e+01 0 -1 0
2001 667 3 4.0999999999999998e-01 6.2032904277706180e+00 2.0831182541684168e+00 2.7642391305374407e+01 -4 -1 -2
1925 642 4 -8.1999999999999995e-01 6.6337432220316144e+00 8.2618462456657245e+00 2.3320429283129801e+01 0 3 2
2484 828 3 4.0999999999999998e-01 1.0251089731205532e+01 2.7855285878903220e+00 2.7119961042768878e+01 4 -1 3
3563 1188 4 -8.1999999999999995e-01 8.0038360180476982e+00 6.7741554399340602e+00 2.7291543060021134e+01 1 -4 5
4007 1336 4 -8.1999999999999995e-01 5.9969783150146663e+00 9.9779535604749281e-01 2.3792540253375417e+01 -1 -1 5
533 178 4 -8.1999999999999995e-01 1.3828188000086681e+00 3.6259082107683438e-01 2.6147331830007403e+01 -1 2 1
5484 1828 3 4.0999999999999998e-01 8.2870100596825562e+00 6.6863209791335532e+00 2.1902078558421216e+01 -1 -1 3
2192 731 4 -8.1999999999999995e-01 1.2453635275600603e+00 7.9295948771646962e+00 2.2320142631917911e+01 -1 0 3
986 329 4 -8.1999999999999995e-01 2.7934880825306658e+00 1.2295506423474130e+00 2.8404065718596353e+01 1 -2 1
5400 1800 3 4.0999999999999998e-01 8.0977487943282931e+00 5.5959775439922144e+00 2.3809994087594983e+01 -3 -3 -2
1646 549 4 -8.1999999999999995e-01 6.2761847761117984e-01 9.1758813473838305e+00 3.0839745601017412e+01 3 -3 -2
5398 1800 3 4.0999999999999998e-01 9.3578132010350785e+00 6.6411420262110061e+00 2.4265900328637265e+01 -3 -3 -2