LAMMPS data file via write_data, version 5 Jun 2019, timestep = 21000000

7349 atoms
5 atom types
4899 bonds
2 bond types
2451 angles
2 angle types
1 impropers
1 improper types

1.5519297081455363e-01 4.1845807029189409e+01 xlo xhi
1.5469297081455124e-01 4.1845307029189406e+01 ylo yhi
1.5469297081455124e-01 4.1845307029189406e+01 zlo zhi

#Masses
#
#1 12.01
#2 40.08
#3 1.01
#4 16
#5 16
#
#Bond Coeffs # harmonic
#
#1 20.4246 1.3042
#2 22.965 1.012

Atoms # full

7152 2384 3 4.0999999999999998e-01 8.2238167717275239e+00 6.9032530497176028e+00 1.5537823946735230e+00 0 -2 -2
3372 1124 3 4.0999999999999998e-01 9.2895920351895604e+00 6.4391741375739997e+00 3.4521706147010192e+00 -5 0 0
3286 1096 3 4.0999999999999998e-01 2.0354249841257679e+00 7.0074160691477427e+00 1.6376979510704506e+00 3 -3 -6
4421 1474 4 -8.1999999999999995e-01 6.4929089697264397e-01 9.5124355121053465e+00 5.5482196871549707e+00 -1 3 3
4177 1393 3 4.0999999999999998e-01 7.7688307085129926e-01 8.4064255882890642e+00 3.0305077209192457e+00 -2 -5 2
3955 1319 3 4.0999999999999998e-01 6.3147685803998002e+00 7.7680824944265465e+00 2.2911736721298350e+00 0 -3 2
1006 336 3 4.0999999999999998e-01 5.4771456996800874e+00 5.9391499784062844e+00 8.7011443825083816e+00 -5 2 3
4422 1474 3 4.0999999999999998e-01 1.2064767272778969e+00 1.0251329780544760e+01 5.9906055022262308e+00 -1 3 3
7120 2374 3 4.0999999999999998e-01 9.5231452345493341e+00 9.0613670444249870e+00 8.6885664151353623e+00 0 1 -2
4078 1360 3 4.0999999999999998e-01 4.4081633755459686e+00 7.6691820218294211e+00 3.9771369914711112e+00 2 -3 4
782 261 4 -8.1999999999999995e-01 8.5366332500128213e+00 9.5087996459686135e+00 5.2627604761240754e+00 -1 0 0
4079 1360 4 -8.1999999999999995e-01 3.9058187211257072e+00 7.8488673311422854e+00 4.9402772345429575e+00 2 -3 4
6230 2077 4 -8.1999999999999995e-01 4.8911468388653084e-01 1.0093230623961513e+00 6.6609054197443571e+00 -1 2 -1
6502 2168 3 4.0999999999999998e-01 1.6161147050445177e+00 7.9062608533103085e-01 2.6733527185962140e+00 5 -1 -2
5020 1674 3 4.0999999999999998e-01 5.6626878545760153e+00 1.0343380791869238e+01 1.0124634135747863e+01 2 -6 -4
1431 477 3 4.0999999999999998e-01 1.9647239964957439e+00 6.5024066736447157e+00 7.7387399994639141e+00 2 -2 -2
176 59 4 -8.1999999999999995e-01 3.2854178686149025e+00 3.2070485094888235e+00 5.1621278166057518e+00 1 1 2
6612 2204 3 4.0999999999999998e-01 5.3501100768070406e+00 8.0743943642658973e+00 9.5039645812759801e+00 -1 2 1
7121 2374 4 -8.1999999999999995e-01 9.3816963852512529e+00 8.4525873536415403e+00 7.8619332144730851e+00 0 1 -2
1618 540 3 4.0999999999999998e-01 9.7842087787631939e+00 4.9750287155961948e+00 9.1333392413839913e+00 -3 0 -3
1620 540 3 4.0999999999999998e-01 8.7745379847354261e+00 5.1827433105763161e+00 7.7664380498388033e+00 -3 0 -3
3587 1196 4 -8.1999999999999995e-01 4.1273831125311951e+00 9.4590594398557624e+00 6.9407096589961315e+00 0 -2 2
1435 479 3 4.0999999999999998e-01 1.6603884230588806e+00 7.9630278794918512e+00 9.9672737882339124e+00 -2 -2 1
4073 1358 4 -8.1999999999999995e-01 8.4752601022617124e+00 3.4407384169195923e+00 3.9343527833467080e+00 2 -1 2
2367 789 3 4.0999999999999998e-01 6.5755495263980446e-01 3.6609013188265638e+00 4.3018895345357899e+00 0 2 -1
5721 1907 3 4.0999999999999998e-01 9.4125816504355697e+00 3.2597966465244061e+00 6.8779690867424605e+00 1 0 2
2551 851 3 4.0999999999999998e-01 2.6743750909243147e-01 9.1483165873042136e+00 9.0706210845092698e+00 1 3 -4
755 252 4 -8.1999999999999995e-01 3.5853041504621639e+00 9.7306836720168608e+00 3.0049298628096115e+00 2 -2 -3
6611 2204 4 -8.1999999999999995e-01 4.9498318589060180e+00 7.5746194527936641e+00 8.7430692693879788e+00 -1 2 1
3370 1124 3 4.0999999999999998e-01 9.7648694268424006e+00 5.7624426667320305e+00 1.9599549330096286e+00 -5 0 0
665 222 4 -8.1999999999999995e-01 9.2901139233773478e+00 1.0264244764481859e+01 2.4771667123977301e+00 2 0 -1
783 261 3 4.0999999999999998e-01 9.3895257938135810e+00 9.2071512879298307e+00 4.7372582290726255e+00 -1 0 0
4179 1393 3 4.0999999999999998e-01 1.4006337977796643e+00 7.1627954513721734e+00 3.8931401243391961e+00 -2 -5 2
3956 1319 4 -8.1999999999999995e-01 5.5791924601642693e+00 7.4295124413613713e+00 2.8701648749839239e+00 0 -3 2
1008 336 3 4.0999999999999998e-01 5.5344926312144693e+00 4.6852714201315910e+00 9.7830530510963545e+00 -5 2 3
175 59 3 4.0999999999999998e-01 2.3833245218391697e+00 3.3769975438569473e+00 5.6328621639933720e+00 1 1 2
3132 1044 3 4.0999999999999998e-01 4.2157747961880760e+00 4.4244198234852989e+00 3.4125366962248744e+00 1 -1 0
6470 2157 4 -8.1999999999999995e-01 4.6350454515715827e+00 1.2390228590286896e+00 9.9621964508106711e+00 6 2 1
4626 1542 3 4.0999999999999998e-01 6.4092015556553603e+00 2.8102075554901038e+00 6.0641051575311344e+00 4 8 1
1430 477 4 -8.1999999999999995e-01 2.0831179330823040e+00 6.8377674309613292e+00 8.7036418402558553e+00 2 -2 -2
6229 2077 3 4.0999999999999998e-01 4.6690417404326695e-01 1.7013144350419918e+00 5.9677109241676236e+00 -1 2 -1
754 252 3 4.0999999999999998e-01 4.3002585780762432e+00 9.1664053741390319e+00 2.5525398936274359e+00 2 -2 -3
198 66 3 4.0999999999999998e-01 8.7350913922918920e+00 1.4759966935202600e+00 4.3745215924323242e+00 -2 1 -1
403 135 3 4.0999999999999998e-01 3.7370858719469613e+00 4.6976771506907671e+00 5.9239918414483794e+00 3 0 2
4072 1358 3 4.0999999999999998e-01 7.4864688997824214e+00 3.3785409798954618e+00 4.1955370207666318e+00 2 -1 2
2120 707 4 -8.1999999999999995e-01 9.8334519305260564e+00 1.0382883860744952e+01 9.9670376850796210e+00 2 6 0
7150 2384 3 4.0999999999999998e-01 8.3210967919688752e+00 7.9561489763572615e+00 3.8983805561680396e-01 0 -2 -2
6503 2168 4 -8.1999999999999995e-01 2.3924971794599657e+00 1.2877086109910680e+00 3.1498231815285727e+00 5 -1 -2
3130 1044 3 4.0999999999999998e-01 4.4785559455739099e+00 3.9941059475579364e+00 1.8800117858156011e+00 1 -1 0
756 252 3 4.0999999999999998e-01 3.3195980662662063e+00 9.3551297858413527e+00 3.9458748050028665e+00 2 -2 -3
6610 2204 3 4.0999999999999998e-01 4.7401423050058140e+00 8.3004110254476018e+00 8.0582636600207316e+00 -1 2 1
5467 1823 3 4.0999999999999998e-01 7.1313185815699152e+00 1.0357907015514055e+01 5.4651222138476001e+00 -5 7 -1
3287 1096 4 -8.1999999999999995e-01 2.6133432232338096e+00 6.4220052645924808e+00 1.0187245363588620e+00 3 -3 -6
1168 390 3 4.0999999999999998e-01 6.3902234095461194e+00 3.6140918200799872e+00 8.0869144505766091e+00 -1 1 0
1619 540 4 -8.1999999999999995e-01 9.1762174946386725e+00 5.6515114086898386e+00 8.5907801983189636e+00 -3 0 -3
4625 1542 4 -8.1999999999999995e-01 6.0828781393479945e+00 3.2438208268997832e+00 5.1516079823137630e+00 4 8 1
1437 479 3 4.0999999999999998e-01 1.9867601164588762e+00 9.5299102057165666e+00 1.0437759269451426e+01 -2 -2 1
3131 1044 4 -8.1999999999999995e-01 3.9568155213130662e+00 4.6269364591076654e+00 2.4968557255053372e+00 1 -1 0
7254 2418 3 4.0999999999999998e-01 1.0237865712397966e+01 5.5985556445263585e-01 7.5097625648401181e+00 -1 0 -1
6603 2201 3 4.0999999999999998e-01 9.0868536319850290e-01 2.7403878695527002e+00 2.5402992924089292e+00 -3 -1 1
3371 1124 4 -8.1999999999999995e-01 8.9671232928182523e+00 5.9111537375314596e+00 2.6436004811119411e+00 -5 0 0
2324 775 4 -8.1999999999999995e-01 5.7484701206393591e+00 2.7323832367266832e+00 1.4236061895167087e+00 4 -2 2
1429 477 3 4.0999999999999998e-01 3.1039011574872748e+00 6.8698635103293695e+00 8.6830670347465801e+00 2 -2 -2
781 261 3 4.0999999999999998e-01 8.6800218767567578e+00 9.1985454214063829e+00 6.2853430759602844e+00 -1 0 0
6602 2201 4 -8.1999999999999995e-01 1.0854418957002196e+00 3.7106661276939374e+00 2.5298270210982752e+00 -3 -1 1
7122 2374 3 4.0999999999999998e-01 8.9635513673673426e+00 7.5645332428346093e+00 8.1491729300815337e+00 0 1 -2
177 59 3 4.0999999999999998e-01 3.0979451183900060e+00 2.4705878940046064e+00 4.5309991009544959e+00 1 1 2
1007 336 4 -8.1999999999999995e-01 5.7799421807425588e+00 4.9825099083037676e+00 8.8226110609219983e+00 -5 2 3
3588 1196 3 4.0999999999999998e-01 3.9426280564663090e+00 8.8416409481471785e+00 6.1311491632852029e+00 0 -2 2
688 230 3 4.0999999999999998e-01 9.5407905914431668e-01 5.3774206963040871e+00 9.2552540489099826e+00 2 -1 1
1824 608 3 4.0999999999999998e-01 9.8188809277977676e+00 2.1863217980180831e+00 5.8237077944016313e-01 5 -1 4
7151 2384 4 -8.1999999999999995e-01 7.6424020987224219e+00 7.4678630437460942e+00 9.3908380618637377e-01 0 -2 -2
4178 1393 4 -8.1999999999999995e-01 1.2002601319123645e+00 7.5102527616051642e+00 2.9070480027294319e+00 -2 -5 2
4074 1358 3 4.0999999999999998e-01 8.6561841412052605e+00 4.3332345612096983e+00 3.4903456286804393e+00 2 -1 2
6504 2168 3 4.0999999999999998e-01 3.1639990132197027e+00 6.5601036365172416e-01 3.0176282923646376e+00 5 -1 -2
1436 479 4 -8.1999999999999995e-01 1.2693402800317040e+00 8.7969673568319617e+00 1.0480653616772992e+01 -2 -2 1
6601 2201 3 4.0999999999999998e-01 2.0923743588529833e+00 3.8855204379553441e+00 2.7189141930008671e+00 -3 -1 1
5719 1907 3 4.0999999999999998e-01 9.5008050424295050e+00 4.0387703143295726e+00 5.4099023584947341e+00 1 0 2
7252 2418 3 4.0999999999999998e-01 9.6948998597985039e+00 1.2473730347152336e+00 6.1953465605256994e+00 -1 0 -1
3957 1319 3 4.0999999999999998e-01 5.2153256618019457e+00 6.6247349838715763e+00 2.4045367534424846e+00 0 -3 2
2277 759 3 4.0999999999999998e-01 6.7194595257213297e-01 8.0030601216454507e+00 5.6021284229189590e+00 2 -2 -1
405 135 3 4.0999999999999998e-01 4.4468877800439914e+00 5.3640357106486318e+00 7.3148965170734828e+00 3 0 2
6329 2110 4 -8.1999999999999995e-01 7.1447800262385206e+00 3.4857887182411018e-01 8.7509875820734440e+00 -3 -2 -3
4213 1405 3 4.0999999999999998e-01 9.5963109722060977e+00 2.9985464010792020e+00 2.6873271621706665e+00 4 -1 1
1169 390 4 -8.1999999999999995e-01 6.8294854465125336e+00 2.7908551882162866e+00 7.6109245114031916e+00 -1 1 0
6471 2157 3 4.0999999999999998e-01 5.6026769972059638e+00 9.8526843475131320e-01 9.7707180282344481e+00 6 2 1
2325 775 3 4.0999999999999998e-01 6.0679359004836710e+00 1.7708672633247740e+00 1.6914287028432720e+00 4 -2 2
197 66 4 -8.1999999999999995e-01 8.9770445043472069e+00 6.6128718310998313e-01 4.8911535981010656e+00 -2 1 -1
689 230 4 -8.1999999999999995e-01 2.5642610553907430e-01 5.0303791372347604e+00 9.9101874816277000e+00 2 -1 1
2276 759 4 -8.1999999999999995e-01 7.4228543215206821e-01 7.0014471085796073e+00 5.6569315612412403e+00 2 -2 -1
3526 1176 3 4.0999999999999998e-01 1.0435222516615765e+01 5.8416251733310789e+00 6.5556680930181574e+00 0 2 1
4080 1360 3 4.0999999999999998e-01 3.6429712154928522e+00 6.9246598186693857e+00 5.3170069024081146e+00 2 -3 4
2323 775 3 4.0999999999999998e-01 6.3010319969328163e+00 3.2288200765894901e+00 6.9258631564151696e-01 4 -2 2
5720 1907 4 -8.1999999999999995e-01 9.7319010043775833e+00 4.1533346932715780e+00 6.4071319776514111e+00 1 0 2
3586 1196 3 4.0999999999999998e-01 4.7879623801005557e+00 1.0174073317930556e+01 6.5820853618943342e+00 0 -2 2
4624 1542 3 4.0999999999999998e-01 5.0505950291929533e+00 3.0572276601298602e+00 5.1707101570797676e+00 4 8 1
404 135 4 -8.1999999999999995e-01 3.7664577679178737e+00 5.5379068280555144e+00 6.6091151569977793e+00 3 0 2
1170 390 3 4.0999999999999998e-01 6.8686312379408161e+00 2.0014517760782642e+00 8.2624574168732945e+00 -1 1 0
7253 2418 4 -8.1999999999999995e-01 1.0296543069339405e+01 1.4552391990619313e+00 7.0044983488144732e+00 -1 0 -1
3528 1176 3 4.0999999999999998e-01 1.0371659730502561e+01 7.4053362617252523e+00 7.0120228616681013e+00 0 2 1
3288 1096 3 4.0999999999999998e-01 3.0464238288389121e+00 5.6690954284706212e+00 1.6625950080980971e+00 3 -3 -6
6469 2157 3 4.0999999999999998e-01 4.6748895532930588e+00 2.1284772290517684e+00 1.0460315499914506e+01 6 2 1
4045 1349 3 4.0999999999999998e-01 8.1106573901693135e+00 1.0277689657561973e+01 4.7507099304476047e-01 3 0 -4
666 222 3 4.0999999999999998e-01 8.7230721217347416e+00 1.0048679775116170e+01 3.2973066816536427e+00 2 0 -1
2366 789 4 -8.1999999999999995e-01 6.5242241956544889e-01 3.3966358924064726e+00 5.2864267260371696e+00 0 2 -1
6231 2077 3 4.0999999999999998e-01 1.2366315156682250e+00 3.6222344749147317e-01 6.3993934152160685e+00 -1 2 -1
4214 1405 4 -8.1999999999999995e-01 1.0361951123870259e+01 2.5349983123041464e+00 2.1949446560011641e+00 4 -1 1
2563 855 3 4.0999999999999998e-01 1.0470166147265727e+01 9.2047242360950712e+00 1.5284447359895281e+00 -2 1 2
1839 613 3 4.0999999999999998e-01 8.3994244505437425e+00 4.8212348375007368e+00 1.5086809130623754e+01 1 2 -1
1114 372 3 4.0999999999999998e-01 9.2109192366441306e-01 6.0614600650636596e+00 1.6548376107151622e+01 0 7 -5
2122 708 3 4.0999999999999998e-01 7.5945521152242694e+00 6.8101300461563783e+00 1.1410287129376890e+01 -3 -1 0
5382 1794 3 4.0999999999999998e-01 6.5658866380456260e+00 9.0041028665578793e+00 1.1499650296072888e+01 -3 -6 -5
2314 772 3 4.0999999999999998e-01 3.2120954987081823e-01 3.3027491113184770e+00 2.0866836030678726e+01 2 -1 2
690 230 3 4.0999999999999998e-01 5.0773261870951236e-01 5.1883616492496154e+00 1.0885082130410492e+01 2 -1 1
1911 637 3 4.0999999999999998e-01 8.0147495108909599e+00 4.7098132457351420e+00 1.9651542104510753e+01 2 -4 -1
6492 2164 3 4.0999999999999998e-01 6.5596564032545404e+00 5.6770035259124061e+00 1.2424944265866488e+01 2 1 0
6320 2107 4 -8.1999999999999995e-01 1.9188920987113149e+00 9.7353310882655819e+00 1.8954283926461976e+01 3 1 2
2177 726 4 -8.1999999999999995e-01 8.8648333510404296e+00 9.6265976304356684e+00 1.4744968853210503e+01 0 0 1
7034 2345 4 -8.1999999999999995e-01 1.8344405774548989e-01 4.3102383678577522e-01 2.0883695902541362e+01 -1 5 -2
4692 1564 3 4.0999999999999998e-01 4.2807527159940317e+00 4.0301809216241224e+00 1.8303644955904559e+01 0 1 0
5022 1674 3 4.0999999999999998e-01 4.2409419512265103e+00 9.7949736451155331e+00 1.0732596331139973e+01 2 -6 -4
1481 494 4 -8.1999999999999995e-01 1.8789196810438253e+00 7.2120104050307319e+00 1.3705596027725214e+01 -4 2 0
995 332 4 -8.1999999999999995e-01 3.9845337482699833e-01 1.8439016035651108e+00 1.4929263256343885e+01 0 0 0
2176 726 3 4.0999999999999998e-01 7.9585052287149241e+00 9.9518675875368814e+00 1.4316743520633601e+01 0 0 1
3379 1127 3 4.0999999999999998e-01 9.6509181484273938e+00 6.1178973318368302e+00 1.9393201676420972e+01 0 3 -4
4167 1389 3 4.0999999999999998e-01 3.8098449409175781e+00 9.7879046459817918e+00 1.3617312464523595e+01 2 -2 1
3514 1172 3 4.0999999999999998e-01 2.2732501914673975e-01 7.0127513620331534e+00 2.0105150150698602e+01 2 -6 3
7113 2371 3 4.0999999999999998e-01 6.9035342214835573e+00 2.5495424720854132e+00 1.3564802431093296e+01 -5 7 2
3175 1059 3 4.0999999999999998e-01 4.1266037667769435e+00 1.7753956804826936e+00 1.9623288429667141e+01 1 -2 -4
6932 2311 4 -8.1999999999999995e-01 4.8157891759889926e-01 3.0680788666464682e+00 1.7620635947057803e+01 1 1 -2
7195 2399 3 4.0999999999999998e-01 2.3980885706732220e+00 1.9949738736122224e+00 1.1055092928738869e+01 -1 -3 2
6914 2305 4 -8.1999999999999995e-01 4.6044794066583803e+00 7.9010366024413043e+00 1.4227597393348891e+01 -3 4 -2
2329 777 3 4.0999999999999998e-01 9.6036095660199923e+00 7.6062914360642386e-01 1.7465100619430221e+01 -1 -1 -1
568 190 3 4.0999999999999998e-01 2.3768864686403219e+00 6.8832485230030249e+00 1.7502512026982043e+01 0 -4 -3
1956 652 3 4.0999999999999998e-01 6.1005626921413896e+00 7.7532204762439614e+00 1.7271647286910785e+01 -3 -1 -2
1358 453 4 -8.1999999999999995e-01 2.9201509475351353e+00 1.1798107797625270e+00 1.4134653505920774e+01 1 1 0
2256 752 3 4.0999999999999998e-01 6.1156124795047022e+00 9.0878460184940941e+00 1.9338056317526618e+01 -4 2 -4
994 332 3 4.0999999999999998e-01 1.3725573647498155e+00 1.6809734096473283e+00 1.4615874781953909e+01 0 0 0
5381 1794 4 -8.1999999999999995e-01 7.3760429269322421e+00 8.4351162469430836e+00 1.1756952635763387e+01 -3 -6 -5
4691 1564 4 -8.1999999999999995e-01 4.8569243357013629e+00 3.7460239819136358e+00 1.9114820856539446e+01 0 1 0
3375 1125 3 4.0999999999999998e-01 9.3697613011829102e+00 3.1848524973841252e+00 1.2902184099406478e+01 1 2 -2
570 190 3 4.0999999999999998e-01 2.7127156682438849e+00 8.1504018838587893e+00 1.8458029022219360e+01 0 -4 -3
2316 772 3 4.0999999999999998e-01 9.0337000032256520e-01 3.5011635862390680e+00 1.9228535383143971e+01 2 -1 2
4292 1431 4 -8.1999999999999995e-01 9.9004020728491433e+00 7.6198688510680901e+00 1.6586497728682257e+01 -1 1 -4
1194 398 3 4.0999999999999998e-01 5.5632973628065301e+00 5.6736472347131803e+00 1.5783529012329010e+01 4 0 -2
6543 2181 3 4.0999999999999998e-01 2.7038291848194502e+00 1.0406582023321553e+01 1.7312439495485307e+01 3 4 4
4693 1565 3 4.0999999999999998e-01 5.0657665415548339e+00 4.7496102731871783e+00 1.1858382944923376e+01 3 1 -2
1539 513 3 4.0999999999999998e-01 1.0026215180706215e+01 1.0201610074173114e+01 1.3780444654309912e+01 2 -2 -4
3176 1059 4 -8.1999999999999995e-01 3.1365452545395556e+00 1.4239264561956402e+00 1.9744273124587110e+01 1 -2 -4
6913 2305 3 4.0999999999999998e-01 4.7005665177952185e+00 7.6418397144610326e+00 1.5251630860155736e+01 -3 4 -2
2381 794 4 -8.1999999999999995e-01 7.4389256498446210e+00 8.6928439069727617e+00 1.7672822114605186e+01 2 2 3
7111 2371 3 4.0999999999999998e-01 5.9369617315182888e+00 3.1749483298513130e+00 1.4728494624656715e+01 -5 7 2
6963 2321 3 4.0999999999999998e-01 2.6557448467162006e+00 4.5725858905751435e+00 1.6713071077302978e+01 2 4 -1
1537 513 3 4.0999999999999998e-01 1.0160413363922817e+01 1.0398132306346852e+01 1.2165741994211210e+01 2 -2 -4
2168 723 4 -8.1999999999999995e-01 5.8159829848705504e+00 6.2363586569030929e+00 1.9901601305524739e+01 1 4 1
3068 1023 4 -8.1999999999999995e-01 1.0047617991683994e+01 8.8884661165721095e+00 2.0498300432745637e+01 -2 1 0
1955 652 4 -8.1999999999999995e-01 5.2588731459896971e+00 7.2370403552476512e+00 1.6884560557200505e+01 -3 -1 -2
1954 652 3 4.0999999999999998e-01 4.7093797127009385e+00 6.8611932962250615e+00 1.7674308956496166e+01 -3 -1 -2
3117 1039 3 4.0999999999999998e-01 2.0318241504539620e+00 6.5087871292541326e+00 1.9766751390009883e+01 2 -2 -3
3177 1059 3 4.0999999999999998e-01 2.5702180780130202e+00 2.2329095844571518e+00 1.9909457179537977e+01 1 -2 -4
6490 2164 3 4.0999999999999998e-01 5.8228810609130441e+00 5.1502143089141486e+00 1.3816578300565814e+01 2 1 0
2123 708 4 -8.1999999999999995e-01 7.8995401071823377e+00 5.8168093709851743e+00 1.1467631515524948e+01 -3 -1 0
5531 1844 4 -8.1999999999999995e-01 9.3463433044590420e+00 2.6574228785600069e+00 2.0165212424063544e+01 0 0 -1
7197 2399 3 4.0999999999999998e-01 2.5792013988274203e+00 1.9322966398245955e+00 1.2727557918565038e+01 -1 -3 2
740 247 4 -8.1999999999999995e-01 8.0019991048521497e+00 3.7290993363583915e+00 1.8171191266757283e+01 -3 3 -3
1482 494 3 4.0999999999999998e-01 2.9473424412322049e+00 7.0436236302602229e+00 1.3828264871137566e+01 -4 2 0
6321 2107 3 4.0999999999999998e-01 1.1672689023310503e+00 1.0444801769247496e+01 1.8717060243170089e+01 3 1 2
6915 2305 3 4.0999999999999998e-01 5.0573849799389077e+00 7.2439344267269234e+00 1.3600433278304099e+01 -3 4 -2
1357 453 3 4.0999999999999998e-01 3.7483772328570231e+00 1.3542261597033780e+00 1.4674280522952648e+01 1 1 0
6961 2321 3 4.0999999999999998e-01 2.6309879579502153e+00 3.0120894385898263e+00 1.7242900770088912e+01 2 4 -1
7112 2371 4 -8.1999999999999995e-01 6.1013446261304782e+00 2.3131225924236660e+00 1.4188455021084421e+01 -5 7 2
7196 2399 4 -8.1999999999999995e-01 2.4110413133883881e+00 2.5990683518047488e+00 1.1913858059422225e+01 -1 -3 2
6249 2083 3 4.0999999999999998e-01 1.4607329907959372e+00 3.8477358937577026e+00 1.2528503992080450e+01 -2 -2 3
3373 1125 3 4.0999999999999998e-01 8.4596284451732888e+00 4.5194243512916614e+00 1.2524995484641767e+01 1 2 -2
4690 1564 3 4.0999999999999998e-01 5.2988280890553829e+00 4.6120101834633100e+00 1.9460675315780421e+01 0 1 0
1192 398 3 4.0999999999999998e-01 4.5443465711547635e+00 4.2495096675733235e+00 1.6013880686315641e+01 4 0 -2
2169 723 3 4.0999999999999998e-01 5.4143944162634945e+00 6.6572060121462089e+00 2.0712718641208433e+01 1 4 1
6319 2107 3 4.0999999999999998e-01 1.8617119664074790e+00 9.6603484573131322e+00 1.9966377991959131e+01 3 1 2
6962 2321 4 -8.1999999999999995e-01 3.2434986793684280e+00 3.7358730628785928e+00 1.6981610126274727e+01 2 4 -1
5530 1844 3 4.0999999999999998e-01 8.9213667511178922e+00 2.8348217683807198e+00 1.9242781226339229e+01 0 0 -1
1116 372 3 4.0999999999999998e-01 1.8078613952424731e+00 6.2062584409443211e+00 1.5214118516485332e+01 0 7 -5
6015 2005 3 4.0999999999999998e-01 2.2623236385862993e+00 5.6251972296461072e-01 1.7911439175315742e+01 -1 2 -1
2751 917 3 4.0999999999999998e-01 6.5361386301709654e+00 9.1642458816869221e-01 1.4918399586377658e+01 4 5 4
1115 372 4 -8.1999999999999995e-01 1.8882684355812855e+00 6.0210608841500246e+00 1.6192691426289475e+01 0 7 -5
3255 1085 3 4.0999999999999998e-01 1.0177994799400734e+01 7.4175050442205304e-01 1.2053692437989172e+01 3 1 -5
741 247 3 4.0999999999999998e-01 7.1878177782161092e+00 3.1747631131853740e+00 1.7817488929275893e+01 -3 3 -3
2255 752 4 -8.1999999999999995e-01 6.1144541998591286e+00 9.9833770530843964e+00 1.9900632521297116e+01 -4 2 -4
2178 726 3 4.0999999999999998e-01 8.6392783500754753e+00 8.9787249901411634e+00 1.5539073658149832e+01 0 0 1
6563 2188 4 -8.1999999999999995e-01 6.4504508189609142e+00 1.0238465263699124e+01 1.3996306216512053e+01 1 4 -4
6562 2188 3 4.0999999999999998e-01 5.8835973207005781e+00 9.4181199045228290e+00 1.4172193596459795e+01 1 4 -4
2315 772 4 -8.1999999999999995e-01 1.0980334658306237e+00 3.6118238370683602e+00 2.0263149862334132e+01 2 -1 2
3374 1125 4 -8.1999999999999995e-01 8.5314847192763512e+00 3.6855192976435696e+00 1.3122241175218946e+01 1 2 -2
2382 794 3 4.0999999999999998e-01 8.1715899674078596e+00 8.0484883080805556e+00 1.7408090333068611e+01 2 2 3
6248 2083 4 -8.1999999999999995e-01 9.1658462603377089e-01 4.6401450776777278e+00 1.2919188540433099e+01 -2 -2 3
1193 398 4 -8.1999999999999995e-01 5.4049126773508647e+00 4.7189524361744795e+00 1.5528558822379514e+01 4 0 -2
569 190 4 -8.1999999999999995e-01 2.6850480025539838e+00 7.1753798552333681e+00 1.8449271070027166e+01 0 -4 -3
5532 1844 3 4.0999999999999998e-01 9.7130351780277024e+00 1.7326530734146559e+00 2.0082099402603941e+01 0 0 -1
1480 494 3 4.0999999999999998e-01 1.3878473909654763e+00 6.3921771154375948e+00 1.3276916335259401e+01 -4 2 0
6491 2164 4 -8.1999999999999995e-01 5.6832226826019410e+00 5.7377847794130012e+00 1.2950876016210220e+01 2 1 0
739 247 3 4.0999999999999998e-01 8.1498310637908684e+00 4.4262018182366649e+00 1.7465590320162480e+01 -3 3 -3
2167 723 3 4.0999999999999998e-01 6.7864502206664969e+00 6.0005051613136455e+00 2.0146627989841569e+01 1 4 1
2380 794 3 4.0999999999999998e-01 7.8981415647401754e+00 9.5193458176443109e+00 1.8031058993502334e+01 2 2 3
1838 613 4 -8.1999999999999995e-01 8.8603729101158226e+00 5.0497848390670530e+00 1.5982989851321264e+01 1 2 -1
4293 1431 3 4.0999999999999998e-01 9.7124205725441382e+00 6.6248424763816738e+00 1.6317393691244092e+01 -1 1 -4
6730 2244 3 4.0999999999999998e-01 6.8122531019820833e+00 2.9457241132074108e-01 2.0582335124337057e+01 -3 2 2
5380 1794 3 4.0999999999999998e-01 8.1305552761691473e+00 8.9763402932592466e+00 1.2112356400982023e+01 -3 -6 -5
3116 1039 4 -8.1999999999999995e-01 1.5859470709270964e+00 6.2787525505701396e+00 2.0690319347855695e+01 2 -2 -3
4695 1565 3 4.0999999999999998e-01 3.9333815826103047e+00 3.5736670040333962e+00 1.1751847047876492e+01 3 1 -2
1910 637 4 -8.1999999999999995e-01 8.2072081483090535e+00 5.4283808683074239e+00 2.0379823395831192e+01 2 -4 -1
3069 1023 3 4.0999999999999998e-01 1.0506650529072662e+01 8.0984364621568510e+00 2.0002587346775456e+01 -2 1 0
1837 613 3 4.0999999999999998e-01 9.7102516354982562e+00 4.5018227129024151e+00 1.6071299670331040e+01 1 2 -1
4694 1565 4 -8.1999999999999995e-01 4.7838261887643219e+00 3.9333458205582263e+00 1.1299340893177613e+01 3 1 -2
3115 1039 3 4.0999999999999998e-01 1.4935447083080187e+00 5.3230858791923152e+00 2.0881350893818890e+01 2 -2 -3
3732 1244 3 4.0999999999999998e-01 9.4106605938917394e+00 9.9045166993108786e+00 1.9649304787588985e+01 -2 1 -5
6541 2181 3 4.0999999999999998e-01 4.4034490729556683e+00 1.0419724554184434e+01 1.7259964524439194e+01 3 4 4
15 5 3 4.0999999999999998e-01 2.8442903867807701e-01 8.6728776850252824e+00 1.1829224811497072e+01 1 1 0
5021 1674 4 -8.1999999999999995e-01 5.2345417626521318e+00 9.6554120374736563e+00 1.0806019647696628e+01 2 -6 -4
1341 447 3 4.0999999999999998e-01 1.0152334036251119e+01 7.9076381822638719e+00 1.3929949982277218e+01 1 -1 2
3067 1023 3 4.0999999999999998e-01 9.1695496530050491e+00 8.6829580179934585e+00 2.0992703671916619e+01 -2 1 0
2124 708 3 4.0999999999999998e-01 8.2871045153365213e+00 5.5098752474971855e+00 1.0586821499184506e+01 -3 -1 0
3240 1080 3 4.0999999999999998e-01 4.3936121252880005e+00 2.1859932345791382e+00 2.3541258609968505e+01 1 -4 -2
4617 1539 3 4.0999999999999998e-01 7.9353379598161604e+00 9.7976241819583443e+00 2.2832456731224269e+01 -4 -3 -1
4489 1497 3 4.0999999999999998e-01 3.7629950174438545e+00 6.7998428177173116e+00 2.2125746968270793e+01 -3 -2 0
5313 1771 3 4.0999999999999998e-01 2.2552903412705132e+00 3.8891689974040897e+00 2.1616913462039616e+01 5 4 1
4725 1575 3 4.0999999999999998e-01 8.3864181439784620e+00 3.5405962545337921e+00 2.6709506314123420e+01 0 3 -2
6084 2028 3 4.0999999999999998e-01 6.1017950005634898e+00 5.3803237707150604e+00 2.8548556402158880e+01 -1 2 0
2025 675 3 4.0999999999999998e-01 1.6995069626126240e+00 9.6559322502199940e+00 3.0426974291237602e+01 1 4 -1
4723 1575 3 4.0999999999999998e-01 7.9924368484971566e+00 1.9140043688198363e+00 2.6525085068212327e+01 0 3 -2
3109 1037 3 4.0999999999999998e-01 4.7281574009481657e+00 2.5245759165000385e+00 2.8305506866372578e+01 -2 2 -2
1452 484 3 4.0999999999999998e-01 2.5152326093303232e+00 7.2392735714209762e+00 2.7868982590103805e+01 1 5 -3
3239 1080 4 -8.1999999999999995e-01 4.6987689171193523e+00 1.2190444371073190e+00 2.3369046439655168e+01 1 -4 -2
4368 1456 3 4.0999999999999998e-01 7.3426585685936541e+00 6.8704393616509751e+00 3.0029006995931439e+01 -2 1 1
6740 2247 4 -8.1999999999999995e-01 1.0431907035684095e+01 8.6849668082777587e+00 2.7480255928249690e+01 3 5 -1
1135 379 3 4.0999999999999998e-01 4.6968076220652133e+00 4.4977285570991015e+00 2.6826005194241439e+01 1 2 -3
5347 1783 3 4.0999999999999998e-01 2.5967666869614949e+00 1.6131455359387252e+00 2.9441659584952987e+01 4 -4 1
7295 2432 4 -8.1999999999999995e-01 5.8442725555503463e+00 7.2055423932966560e+00 2.5044329670391154e+01 3 6 0
4709 1570 4 -8.1999999999999995e-01 7.2794864877083763e+00 9.9168285330541242e+00 2.8985643038792173e+01 0 4 -3
1312 438 3 4.0999999999999998e-01 9.2737351589627348e+00 9.9464401878186770e+00 2.6810338571878422e+01 -2 -5 0
1137 379 3 4.0999999999999998e-01 3.4978402147424177e+00 5.3230788360608106e+00 2.6064644007628551e+01 1 2 -3
6537 2179 3 4.0999999999999998e-01 9.1378812385370090e+00 3.6831226415342435e+00 2.3471485678914558e+01 -2 1 1
6083 2028 4 -8.1999999999999995e-01 6.0797222990474227e+00 5.8188298439126624e+00 2.9495570633058044e+01 -1 2 0
1684 562 3 4.0999999999999998e-01 1.3631631556856891e+00 7.0372147978948363e-01 2.6029636367619457e+01 -1 2 0
6810 2270 3 4.0999999999999998e-01 1.0158870239669941e+01 8.2926028305032395e-01 2.6739509300213005e+01 4 -3 -3
5176 1726 3 4.0999999999999998e-01 6.9471025579435484e+00 7.1357011233112058e+00 2.4126798536572718e+01 1 0 2
4606 1536 3 4.0999999999999998e-01 3.6433270301697527e+00 1.0338150772602713e+01 2.9428027453957469e+01 -2 1 3
4938 1646 3 4.0999999999999998e-01 8.7023623435410347e+00 5.2700875533965053e-01 2.2318622475910121e+01 -2 0 6
1451 484 4 -8.1999999999999995e-01 2.5344962036493692e+00 7.1043477844935543e+00 2.8858515447407491e+01 1 5 -3
2139 713 3 4.0999999999999998e-01 1.7198051326632198e+00 7.8499454995490776e+00 2.1441911658067433e+01 2 3 -2
4616 1539 4 -8.1999999999999995e-01 7.7482703651255935e+00 9.2306654788982296e+00 2.1987463127771321e+01 -4 -3 -1
3545 1182 4 -8.1999999999999995e-01 1.0312054825901653e+01 4.5532643645171715e+00 2.6530099399539100e+01 3 2 0
4615 1539 3 4.0999999999999998e-01 7.1733507644647077e+00 9.8006654922556695e+00 2.1283455981714617e+01 -4 -3 -1
1694 565 4 -8.1999999999999995e-01 1.7956917983146707e+00 5.5365879674466694e+00 2.5954998880175921e+01 1 0 6
1313 438 4 -8.1999999999999995e-01 8.4886272426651548e+00 1.0563661712076641e+01 2.6465328032173886e+01 -2 -5 0
1019 340 4 -8.1999999999999995e-01 6.5153373544339033e+00 3.2890427112436242e+00 3.1177273421309604e+01 3 0 -3
5237 1746 4 -8.1999999999999995e-01 3.8479664949735164e+00 6.4225500325641924e+00 3.1270685446395650e+01 0 5 0
4724 1575 4 -8.1999999999999995e-01 7.5805804929993554e+00 2.8662975022866655e+00 2.6866001444084528e+01 0 3 -2
5056 1686 3 4.0999999999999998e-01 3.1535743736452773e+00 8.8359747646212359e+00 2.6066840287350079e+01 0 2 0
1314 438 3 4.0999999999999998e-01 7.6820951117225560e+00 1.0308867537081653e+01 2.6992090277150506e+01 -2 -5 0
5529 1843 3 4.0999999999999998e-01 1.7218304777620446e+00 2.3653746991049602e+00 2.4954386898670656e+01 0 1 4
1686 562 3 4.0999999999999998e-01 2.9541174569044562e+00 4.7177068102627706e-01 2.5696765145307801e+01 -1 2 0
5507 1836 4 -8.1999999999999995e-01 8.6885980144425510e+00 6.4189705184590817e-01 2.5777023382593129e+01 -1 4 -5
2137 713 3 4.0999999999999998e-01 1.0398948755142576e+00 9.2814745126545191e+00 2.1898163120851212e+01 2 3 -2
5281 1761 3 4.0999999999999998e-01 6.8048549423702021e+00 4.0713389755720497e+00 2.3339020502096972e+01 2 5 4
4367 1456 4 -8.1999999999999995e-01 8.1466874717488551e+00 7.4519984027802604e+00 3.0334577810020544e+01 -2 1 1
336 112 3 4.0999999999999998e-01 4.5388699742425436e+00 9.4260868422572663e+00 2.7914701494526444e+01 1 -3 4
5238 1746 3 4.0999999999999998e-01 3.2745774252598001e+00 6.5269959015521524e+00 3.0388713270024567e+01 0 5 0