LAMMPS data file via write_data, version 5 Jun 2019, timestep = 7000000

7349 atoms
5 atom types
4899 bonds
2 bond types
2451 angles
2 angle types
1 impropers
1 improper types

1.5519297081455363e-01 4.1845807029189409e+01 xlo xhi
1.5469297081455124e-01 4.1845307029189406e+01 ylo yhi
1.5469297081455124e-01 4.1845307029189406e+01 zlo zhi

#Masses
#
#1 12.01
#2 40.08
#3 1.01
#4 16
#5 16
#
#Bond Coeffs # harmonic
#
#1 20.4246 1.3042
#2 22.965 1.012

Atoms # full

6565 2189 3 4.0999999999999998e-01 9.0861178031859744e+00 2.5214431404858018e+00 5.2350286938578234e+00 2 1 2
5492 1831 4 -8.1999999999999995e-01 2.2517714908472835e+00 1.5103209152377315e+00 9.6675209088410838e+00 0 0 0
4989 1663 3 4.0999999999999998e-01 4.1963251932571266e-01 3.1552692260378690e+00 7.4119189227464171e+00 3 3 -3
46 16 3 4.0999999999999998e-01 7.3274612594151671e+00 7.4502936708546708e+00 7.6738052100646499e+00 1 2 1
1947 649 3 4.0999999999999998e-01 2.7302729558885312e+00 4.0400333928876160e+00 7.2014876969189565e+00 1 -1 0
3614 1205 4 -8.1999999999999995e-01 1.9870563805217394e+00 6.5699499112911610e+00 6.7230075501315776e+00 1 0 -3
1912 638 3 4.0999999999999998e-01 1.3162856884760230e+00 8.4985795900430983e+00 6.8182128855536961e-01 2 -3 1
1159 387 3 4.0999999999999998e-01 1.1634643253012094e+00 1.0286887021756805e+00 4.0077465265376429e+00 -1 1 -1
3925 1309 3 4.0999999999999998e-01 8.1804642244169856e-01 8.5937762521306613e+00 9.1777110170457252e+00 2 3 1
1122 374 3 4.0999999999999998e-01 9.1170942986756671e+00 9.5719043941523427e+00 3.7691188024194755e+00 -1 1 3
1366 456 3 4.0999999999999998e-01 8.5012285528953999e+00 7.0250862287654501e+00 5.5543406990590427e-01 -1 0 2
5254 1752 3 4.0999999999999998e-01 6.1575969390291518e-01 7.3467989705631291e+00 6.1911573841471093e+00 1 1 -1
2305 769 3 4.0999999999999998e-01 1.0350683847202870e+01 1.0344282472893665e+01 5.4650286930646557e+00 1 0 2
1914 638 3 4.0999999999999998e-01 1.8998893276619024e+00 7.0086494196528584e+00 6.2562301102705442e-01 2 -3 1
2761 921 3 4.0999999999999998e-01 7.7588407211111852e+00 1.4875688426444926e+00 6.6101541884180062e+00 -1 1 2
5491 1831 3 4.0999999999999998e-01 1.5816053510871790e+00 2.2039427366020226e+00 9.7594002510047222e+00 0 0 0
2061 687 3 4.0999999999999998e-01 4.6997349601333713e+00 2.5611999169760415e+00 7.6700701176557740e+00 -1 1 1
1367 456 4 -8.1999999999999995e-01 9.0699323723035388e+00 7.6187878390097428e+00 1.1837159281514393e+00 -1 0 2
1453 485 3 4.0999999999999998e-01 8.2347146178488124e+00 1.2965183553102957e+00 3.9497528646822122e+00 4 2 1
4401 1467 3 4.0999999999999998e-01 5.8728410752621114e+00 3.3107166240057149e+00 2.0230165899761152e+00 -1 -1 4
492 164 3 4.0999999999999998e-01 8.5864295962150159e+00 4.7281642938978061e+00 9.5088141851388333e+00 1 0 0
5179 1727 3 4.0999999999999998e-01 5.4034795358845580e+00 6.8448760633120429e+00 3.1786543956530906e+00 -1 4 0
4269 1423 3 4.0999999999999998e-01 6.5151030205255038e+00 3.9527759229300035e+00 4.2656733236467659e+00 -2 2 1
4898 1633 4 -8.1999999999999995e-01 2.8716987000841926e-01 1.0147532644735886e+01 4.0781581959624074e+00 -1 0 2
4897 1633 3 4.0999999999999998e-01 2.5709577302414643e-01 9.4614767274413740e+00 4.8252481365850421e+00 -1 0 2
4100 1367 4 -8.1999999999999995e-01 1.8153773560426789e+00 4.8606908228225700e+00 4.3871124282445741e+00 3 -1 0
954 318 3 4.0999999999999998e-01 2.5716127447383652e+00 9.9485983855623434e+00 1.6871647298308474e+00 2 -1 -1
4399 1467 3 4.0999999999999998e-01 7.4364428181556601e+00 3.9430271239668677e+00 2.2544299045961385e+00 -1 -1 4
4105 1369 3 4.0999999999999998e-01 9.2960979878725016e+00 7.7129768145500703e+00 5.7042870834612147e+00 1 2 0
623 208 4 -8.1999999999999995e-01 8.2623857193462396e+00 3.0348724760444581e+00 9.4319578530599593e+00 0 -1 2
4099 1367 3 4.0999999999999998e-01 8.4062388295256030e-01 4.6295451825383207e+00 4.1922828129729659e+00 3 -1 0
7063 2355 3 4.0999999999999998e-01 3.0000226898452320e+00 3.6555691412758069e+00 5.2073130780330832e+00 2 1 -1
6189 2063 3 4.0999999999999998e-01 3.5471484918253013e+00 9.2116551676432348e+00 9.3869598476660006e+00 0 1 0
383 128 4 -8.1999999999999995e-01 9.5524772584079454e+00 5.6437153610750457e+00 2.8766647004348616e+00 3 1 4
4287 1429 3 4.0999999999999998e-01 4.5705246477079076e+00 9.0144850726662700e+00 1.6958504430664210e+00 0 -2 -1
6566 2189 4 -8.1999999999999995e-01 9.6290827484100330e+00 2.0537662085942663e+00 4.5683644318916743e+00 2 1 2
274 92 3 4.0999999999999998e-01 9.2695297039937632e+00 5.5529243122880043e+00 6.1141032661988852e+00 0 1 1
3613 1205 3 4.0999999999999998e-01 1.7426753175503118e+00 5.6669640516505764e+00 7.2353403231083870e+00 1 0 -3
4101 1367 3 4.0999999999999998e-01 2.0257246585286555e+00 5.5497819844102416e+00 5.1614823974242237e+00 3 -1 0
47 16 4 -8.1999999999999995e-01 6.4019864715110870e+00 7.6745546229441794e+00 7.9019533133247455e+00 1 2 1
6591 2197 3 4.0999999999999998e-01 4.7407476469084271e+00 6.7331357573046056e+00 5.9798368930308488e-01 -1 3 1
1404 468 3 4.0999999999999998e-01 2.4295696634705011e+00 4.9407242682569121e+00 1.0992509272738196e+00 2 -2 1
5180 1727 4 -8.1999999999999995e-01 4.8045979572695474e+00 7.0885351693374830e+00 2.4000776868231237e+00 -1 4 0
1402 468 3 4.0999999999999998e-01 2.0380722472618307e+00 4.9869566771654368e+00 2.7267905720812071e+00 2 -2 1
622 208 3 4.0999999999999998e-01 9.1322542351531730e+00 2.5843955721205893e+00 9.0251659838557838e+00 0 -1 2
4381 1461 3 4.0999999999999998e-01 3.3454555609553589e+00 1.3306122676768604e+00 4.7679174811938081e+00 0 2 2
48 16 3 4.0999999999999998e-01 6.4542870755595052e+00 8.2057267113008976e+00 8.8154464141534721e+00 1 2 1
2384 795 4 -8.1999999999999995e-01 8.2636421814778789e+00 3.3110975402150649e+00 3.4938023086130215e-01 0 1 -1
2763 921 3 4.0999999999999998e-01 7.5175067863971146e+00 2.8910347379722006e+00 7.5923810718915856e+00 -1 1 2
2385 795 3 4.0999999999999998e-01 9.1858258716037327e+00 3.1852327389242809e+00 8.9329474178172241e-01 0 1 -1
4175 1392 4 -8.1999999999999995e-01 5.9919293697461322e+00 6.7062403840596270e+00 5.2997716100159185e+00 1 1 1
1946 649 4 -8.1999999999999995e-01 1.8361951414810258e+00 4.0811535277750286e+00 7.7131906227567741e+00 1 -1 0
4383 1461 3 4.0999999999999998e-01 3.2085676383719641e+00 1.7175443083373694e+00 3.2052611936282487e+00 0 2 2
624 208 3 4.0999999999999998e-01 7.7232842532124373e+00 2.2441049145850829e+00 9.7924940105206666e+00 0 -1 2
5870 1957 4 -8.1999999999999995e-01 4.2659205258396877e+00 2.7394220645070853e+00 1.3896098351399975e+00 2 1 -1
384 128 3 4.0999999999999998e-01 1.0185198608564146e+01 4.9084371571058965e+00 2.5622023510666354e+00 3 1 4
490 164 3 4.0999999999999998e-01 8.4062289113542299e+00 6.2177868126894724e+00 1.0225956163560490e+01 1 0 0
2798 933 4 -8.1999999999999995e-01 6.3898426846980847e+00 6.9576131409162223e-01 1.0066517121068914e+01 -1 -1 1
2059 687 3 4.0999999999999998e-01 3.5655199827661153e+00 1.7962893256640218e+00 8.4746232638799057e+00 -1 1 1
7064 2355 4 -8.1999999999999995e-01 3.7794361821673426e+00 3.5090477861895955e+00 5.8835416240827154e+00 2 1 -1
7065 2355 3 4.0999999999999998e-01 4.7059272354900372e+00 3.7551374624330061e+00 5.5090299999267351e+00 2 1 -1
1120 374 3 4.0999999999999998e-01 9.0656384336355824e+00 1.0338547517100386e+01 2.3315269584660689e+00 -1 1 3
4382 1461 4 -8.1999999999999995e-01 2.8576465730576781e+00 1.1580809186019951e+00 3.9175017685464075e+00 0 2 2
5869 1957 3 4.0999999999999998e-01 3.6957891747340605e+00 3.3333619691453862e+00 7.0987314047462957e-01 2 1 -1
953 318 4 -8.1999999999999995e-01 1.4907043522862764e+00 9.8968342293449627e+00 1.6880128227328941e+00 2 -1 -1
4400 1467 4 -8.1999999999999995e-01 6.5770231571358870e+00 3.6049246078047599e+00 2.6667385500585672e+00 -1 -1 4
276 92 3 4.0999999999999998e-01 8.7972628075814487e+00 5.9631205983830773e+00 7.7348248961622010e+00 0 1 1
4286 1429 4 -8.1999999999999995e-01 4.0785447664209817e+00 9.8817641291387677e+00 1.4920619582638677e+00 0 -2 -1
275 92 4 -8.1999999999999995e-01 8.7288184011521306e+00 6.2741829086542857e+00 6.7153896330367520e+00 0 1 1
5910 1970 3 4.0999999999999998e-01 4.9731275638565213e+00 9.8832781549323467e+00 5.8195099149015928e+00 0 -1 -1
6188 2063 4 -8.1999999999999995e-01 4.2100411220874143e+00 9.9100154093273538e+00 9.0498776680984445e+00 0 1 0
2762 921 4 -8.1999999999999995e-01 7.9052748867507736e+00 2.4820430755856915e+00 6.6813059900571137e+00 -1 1 2
1348 450 3 4.0999999999999998e-01 4.7684339788456418e+00 4.6143345081123339e+00 1.0203624286033843e+01 2 0 -1
6470 2157 4 -8.1999999999999995e-01 4.8075505657144504e+00 5.8109164843747383e+00 8.8833297095698533e+00 0 0 0
2060 687 4 -8.1999999999999995e-01 4.5582072821039237e+00 1.7149162240133193e+00 8.2472099706414763e+00 -1 1 1
3926 1309 4 -8.1999999999999995e-01 1.7281984931831129e+00 8.4300942431851915e+00 9.7133023872542967e+00 2 3 1
4130 1377 4 -8.1999999999999995e-01 8.1319812951876269e+00 1.0049613869924640e+01 4.0172147549686027e-01 0 1 2
1368 456 3 4.0999999999999998e-01 9.1359935353507051e+00 6.9115827947647839e+00 1.9558610078364740e+00 -1 0 2
1455 485 3 4.0999999999999998e-01 6.9617066376314796e+00 1.9757115763359190e+00 3.2116549036736157e+00 4 2 1
2797 933 3 4.0999999999999998e-01 5.8621760756997734e+00 6.8154126222682820e-01 9.1854700835348666e+00 -1 -1 1
6471 2157 3 4.0999999999999998e-01 4.0534447184279569e+00 6.3971053020248601e+00 9.1542258051339829e+00 0 0 0
1454 485 4 -8.1999999999999995e-01 7.3209469752226894e+00 1.0581765874411797e+00 3.6097718025294214e+00 4 2 1
4267 1423 3 4.0999999999999998e-01 7.0309856273016758e+00 3.5644070453433043e+00 5.7375659017162013e+00 -2 2 1
4106 1369 4 -8.1999999999999995e-01 1.0035964580620607e+01 8.2949496767108233e+00 5.2339550984257599e+00 1 2 0
1945 649 3 4.0999999999999998e-01 1.9702943997045845e+00 4.3055681454678485e+00 8.7151372610263049e+00 1 -1 0
701 234 4 -8.1999999999999995e-01 1.0292824210486966e+01 2.8353776424952892e+00 1.8843576230266830e+00 1 1 1
4174 1392 3 4.0999999999999998e-01 6.2080258819199710e+00 7.2478043221294852e+00 6.1095115990536000e+00 1 1 1
952 318 3 4.0999999999999998e-01 1.0388846765626163e+00 1.0113769603062661e+01 2.6284921976904236e+00 2 -1 -1
64 22 3 4.0999999999999998e-01 1.0399022615579222e+01 9.1701382868580605e+00 8.2288983931953386e+00 -1 0 -1
6263 2088 4 -8.1999999999999995e-01 6.4236790208171817e+00 8.8399189124975219e+00 1.0189519206295724e+01 -2 0 1
1403 468 4 -8.1999999999999995e-01 2.3150701093674844e+00 5.5673981953812994e+00 1.9027492468481650e+00 2 -2 1
4268 1423 4 -8.1999999999999995e-01 6.2873339380235738e+00 4.1519402943000188e+00 5.2412806839013051e+00 -2 2 1
3489 1163 3 4.0999999999999998e-01 1.0236159878278832e+01 6.2513563172501119e+00 1.0055532661689016e+01 -2 1 0
5871 1957 3 4.0999999999999998e-01 4.4468657858361533e+00 1.9339109152400298e+00 8.3941745216485741e-01 2 1 -1
6264 2088 3 4.0999999999999998e-01 5.7252492026698656e+00 9.3714205121704062e+00 9.6874744780427022e+00 -2 0 1
4176 1392 3 4.0999999999999998e-01 6.1031453629723211e+00 5.6761748892622865e+00 5.4300432856416840e+00 1 1 1
382 128 3 4.0999999999999998e-01 9.7796207636469248e+00 5.7487035032092013e+00 3.8845248244846871e+00 3 1 4
3615 1205 3 4.0999999999999998e-01 2.1126724523252789e+00 7.2609341607958369e+00 7.4717345234973207e+00 1 0 -3
5181 1727 3 4.0999999999999998e-01 3.9559816082629875e+00 6.5000815090480177e+00 2.5173977749810956e+00 -1 4 0
6469 2157 3 4.0999999999999998e-01 5.5270967869369239e+00 6.5114648751977722e+00 8.7273404563257539e+00 0 0 0
491 164 4 -8.1999999999999995e-01 8.7007685379834339e+00 5.6699156957057522e+00 9.4083268742719746e+00 1 0 0
3920 1307 4 -8.1999999999999995e-01 2.0186818089077621e+00 4.0402795840096317e+00 1.0471659629004259e+01 -2 0 1
1160 387 4 -8.1999999999999995e-01 1.5630646427225842e-01 1.0339441983078512e+00 3.9144823172120029e+00 -1 1 -1
702 234 3 4.0999999999999998e-01 1.0157437112253143e+01 2.3819590365540426e+00 2.8343818689421765e+00 1 1 1
4131 1377 3 4.0999999999999998e-01 8.7105914718702788e+00 9.2234350864464201e+00 5.6443930273744247e-01 0 1 2
2799 933 3 4.0999999999999998e-01 7.2439088950443127e+00 2.4219188734033686e-01 9.7669958538169332e+00 -1 -1 1
1121 374 4 -8.1999999999999995e-01 9.1278849780560201e+00 1.0501645463919351e+01 3.3368127854888820e+00 -1 1 3
3342 1114 3 4.0999999999999998e-01 8.3003161176199018e+00 2.1086480176164557e-01 5.1160406000842273e-01 -1 -1 0
3630 1210 3 4.0999999999999998e-01 1.0363221181193948e+01 6.8756834063706951e-01 7.3100867969032501e+00 0 1 1
4285 1429 3 4.0999999999999998e-01 4.4908990424431403e+00 1.0457492622470829e+01 2.2700111327668919e+00 0 -2 -1
350 117 4 -8.1999999999999995e-01 1.0569019114656777e+01 1.8982397714325110e+00 8.4834929487840718e+00 1 0 -2
5819 1940 4 -8.1999999999999995e-01 7.5640647466900361e+00 3.2901766642361796e+00 1.2698353308157648e+01 1 1 1
7224 2408 3 4.0999999999999998e-01 5.5834332017270611e+00 5.7001333020117588e+00 1.3705142345729877e+01 1 -1 1
6483 2161 3 4.0999999999999998e-01 7.2782429898563965e+00 7.6603925360325347e+00 1.1136546616103310e+01 -1 -1 0
5437 1813 3 4.0999999999999998e-01 6.8641718917539949e+00 4.6386045906585123e+00 1.8210916397407328e+01 0 -3 1
5820 1940 3 4.0999999999999998e-01 8.2581782953362151e+00 3.9135917984176167e+00 1.2372519751084660e+01 1 1 1
974 325 4 -8.1999999999999995e-01 4.2839459927078067e+00 1.8645658458078302e+00 1.8730086697600893e+01 0 0 1
3841 1281 3 4.0999999999999998e-01 2.4954377732968274e+00 1.9960845660348161e+00 1.3115112222813956e+01 1 1 -1
6938 2313 4 -8.1999999999999995e-01 7.7448207533322346e+00 7.3096751940420326e+00 1.4908830763119566e+01 -1 1 -1
5366 1789 4 -8.1999999999999995e-01 9.9256764833692568e+00 1.4266485647571130e+00 1.3079455207596620e+01 -1 1 2
4627 1543 3 4.0999999999999998e-01 1.0501792919120192e+01 5.5899223840911754e+00 1.6850517376532341e+01 2 1 -1
1681 561 3 4.0999999999999998e-01 8.5734746427916058e+00 1.0216431378613294e+01 2.0580253155982977e+01 -1 2 1
4629 1543 3 4.0999999999999998e-01 9.6066554346897597e+00 5.7188401271488178e+00 1.8287081746641245e+01 2 1 -1
5365 1789 3 4.0999999999999998e-01 9.7297578648103471e+00 3.8174752556342051e-01 1.3135044994208570e+01 -1 1 2
4872 1624 3 4.0999999999999998e-01 7.4491923240917535e+00 2.1125183779772105e+00 1.7770620795565211e+01 1 -1 2
6929 2310 4 -8.1999999999999995e-01 4.5125730106813347e+00 7.6024718719805300e+00 1.7980534115617516e+01 0 1 0
6443 2148 4 -8.1999999999999995e-01 4.0520060466492227e+00 8.1320170363597253e+00 1.3185855260794916e+01 0 0 0
6444 2148 3 4.0999999999999998e-01 4.7569730662714482e+00 8.7762935661160864e+00 1.3630198474948731e+01 0 0 0
3116 1039 4 -8.1999999999999995e-01 7.3201532264622982e+00 8.4111408907289480e+00 1.8521674099995980e+01 4 1 -2
6959 2320 4 -8.1999999999999995e-01 5.7433125144599728e+00 5.5584402888319637e+00 1.5420255807643807e+01 -1 -1 1
5008 1670 3 4.0999999999999998e-01 2.4314447496057578e+00 6.5372947644967399e+00 2.0555204122673000e+01 0 0 0
6262 2088 3 4.0999999999999998e-01 7.0058378502365368e+00 9.5661274456342014e+00 1.0585437590321250e+01 -2 0 1
118 40 3 4.0999999999999998e-01 5.8778222198438634e-01 7.7445175569857891e+00 1.6098538596036196e+01 -2 2 0
6481 2161 3 4.0999999999999998e-01 7.3652834410402601e+00 6.6961542108364318e+00 1.2385350621966138e+01 -1 -1 0
6644 2215 4 -8.1999999999999995e-01 1.0255680246490828e+01 6.7567006556602989e+00 2.0115178185791166e+01 1 0 1
6645 2215 3 4.0999999999999998e-01 9.5610060184377410e+00 6.1352901578189076e+00 2.0382084197253832e+01 1 0 1
1962 654 3 4.0999999999999998e-01 7.1289037956107917e+00 1.6335436932118943e+00 1.5251603119708498e+01 -1 -1 2
2662 888 3 4.0999999999999998e-01 3.2826240923055927e+00 8.7951208738323388e+00 2.0463072647534137e+01 0 -2 1
6446 2149 4 -8.1999999999999995e-01 1.1830256227435962e+00 9.9543211268483525e+00 1.7557031560596020e+01 0 0 1
6110 2037 4 -8.1999999999999995e-01 3.6371819039592177e+00 4.3564151274758762e+00 1.9215267195914347e+01 -1 1 -1
499 167 3 4.0999999999999998e-01 8.9718659654981927e+00 1.0339277861833729e+01 1.6132642229130138e+01 2 -1 -2
6348 2116 3 4.0999999999999998e-01 3.8326243494285399e+00 2.9879383175055390e+00 1.6639350292921279e+01 -1 0 0
1960 654 3 4.0999999999999998e-01 7.0072684742784910e+00 2.3564015665518183e+00 1.3645088134509805e+01 -1 -1 2
2654 885 4 -8.1999999999999995e-01 1.4749349342529623e+00 4.9911053234853959e+00 1.4946589928178929e+01 0 -2 2
5720 1907 4 -8.1999999999999995e-01 7.4114934033468822e+00 5.7809716816728125e+00 1.9071413616915276e+01 1 2 2
975 325 3 4.0999999999999998e-01 4.1935397623044972e+00 1.4130847562419833e+00 1.7820288146637814e+01 0 0 1
3865 1289 3 4.0999999999999998e-01 6.7731085413356895e-01 6.6339894889419622e+00 1.2510234665047841e+01 1 0 -1
6445 2149 3 4.0999999999999998e-01 1.1069073889492400e+00 8.9791680973321579e+00 1.7392924511115382e+01 0 0 1
4871 1624 4 -8.1999999999999995e-01 7.9441576261666000e+00 1.3269784300563292e+00 1.7329120983334885e+01 1 -1 2
4498 1500 3 4.0999999999999998e-01 1.1859604263586694e+00 9.2887456588507415e+00 1.3329885725597332e+01 1 -1 0
5597 1866 4 -8.1999999999999995e-01 2.7894352243512750e+00 5.5704545580314380e-01 1.2337496004626251e+01 -1 0 -1
973 325 3 4.0999999999999998e-01 4.2618083709106855e+00 1.1434796722943805e+00 1.9489398510879823e+01 0 0 1
2663 888 4 -8.1999999999999995e-01 3.5690226779037229e+00 7.7954749915564845e+00 2.0462965177786582e+01 0 -2 1
6441 2147 3 4.0999999999999998e-01 1.0268405535839504e+01 3.5844576279803886e+00 1.7145099655087616e+01 0 1 0
7222 2408 3 4.0999999999999998e-01 5.2802801877687759e+00 5.1445797106619944e+00 1.2131244697719307e+01 1 -1 1
1318 440 3 4.0999999999999998e-01 9.7812652677834944e+00 4.7180645609093110e+00 1.3420003822088507e+01 1 0 3
501 167 3 4.0999999999999998e-01 8.4057495260513626e+00 8.7071736114342855e+00 1.5831599284247881e+01 2 -1 -2
5367 1789 3 4.0999999999999998e-01 9.0764260333801960e+00 2.0097280604162160e+00 1.3045387744297487e+01 -1 1 2
6402 2134 3 4.0999999999999998e-01 6.8997088251426719e+00 8.8826873749369391e+00 1.4041202251865894e+01 -1 3 -2
3783 1261 3 4.0999999999999998e-01 2.6920020510494664e+00 6.0975977268928538e+00 1.5571843123957397e+01 -3 -1 -1
3842 1281 4 -8.1999999999999995e-01 2.4001350800724657e+00 2.9496463822330861e+00 1.3486704054458412e+01 1 1 -1
6928 2310 3 4.0999999999999998e-01 5.4984788768379929e+00 7.5730022321659467e+00 1.7955798485334313e+01 0 1 0
2655 885 3 4.0999999999999998e-01 1.7430496346068651e+00 4.1759320058868568e+00 1.4370048314038534e+01 0 -2 2
3781 1261 3 4.0999999999999998e-01 3.4557249382488830e+00 7.3262066907473633e+00 1.4697836490945409e+01 -3 -1 -1
6930 2310 3 4.0999999999999998e-01 4.1222216097043640e+00 7.0855958416950289e+00 1.7138404780369875e+01 0 1 0
6111 2037 3 4.0999999999999998e-01 3.8530136206328236e+00 3.3702948259656598e+00 1.9006550718239911e+01 -1 1 -1
500 167 4 -8.1999999999999995e-01 8.9556327840682428e+00 9.3559073334681475e+00 1.6437741663026419e+01 2 -1 -2
4628 1543 4 -8.1999999999999995e-01 9.9684607086410395e+00 5.0960358883519961e+00 1.7581680437899781e+01 2 1 -1
5009 1670 4 -8.1999999999999995e-01 1.7824653886785875e+00 5.8529333176371603e+00 2.0953367020788274e+01 0 0 0
1349 450 4 -8.1999999999999995e-01 4.7959699873668766e+00 4.1163552566256136e+00 1.1073015994574410e+01 2 0 -1
1961 654 4 -8.1999999999999995e-01 6.5668303486893826e+00 1.7745595360182620e+00 1.4408876147982740e+01 -1 -1 2
4994 1665 4 -8.1999999999999995e-01 9.8802844391166538e+00 2.4801713408911827e+00 1.9981220667724870e+01 3 1 -3
4995 1665 3 4.0999999999999998e-01 1.0287397015323496e+01 1.5260950476123563e+00 2.0238531306336618e+01 3 1 -3
5439 1813 3 4.0999999999999998e-01 5.7441057678745153e+00 3.4986459130244758e+00 1.8276127639710673e+01 0 -3 1
6439 2147 3 4.0999999999999998e-01 9.3365361318002655e+00 2.3903730534940788e+00 1.6860180166884213e+01 0 1 0
6401 2134 4 -8.1999999999999995e-01 6.1099474037598611e+00 9.5861555225470170e+00 1.3935446991350252e+01 -1 3 -2
2653 885 3 4.0999999999999998e-01 1.2470040329311771e+00 4.5444823317049607e+00 1.5867328088335304e+01 0 -2 2
5493 1831 3 4.0999999999999998e-01 2.6290461464946508e+00 1.1292472820607566e+00 1.0589403822843501e+01 0 0 0
6442 2148 3 4.0999999999999998e-01 4.5547570446704251e+00 7.3875220627237903e+00 1.2710812530041167e+01 0 0 0
6346 2116 3 4.0999999999999998e-01 4.7790665902746374e+00 2.2936287627260428e+00 1.5328319021743335e+01 -1 0 0
4026 1342 3 4.0999999999999998e-01 1.9880834605777982e+00 1.0304534118796377e+01 1.9164832740123241e+01 1 2 0
2351 784 4 -8.1999999999999995e-01 1.0295455359672303e+01 6.0749266351551219e+00 1.4884938741917537e+01 2 1 1
5438 1813 4 -8.1999999999999995e-01 6.4934009916523046e+00 3.7966946733758733e+00 1.7690797867942742e+01 0 -3 1
3115 1039 3 4.0999999999999998e-01 7.3853811432024958e+00 9.0647797103749266e+00 1.9286653884675822e+01 4 1 -2
6347 2116 4 -8.1999999999999995e-01 3.8685363575247131e+00 2.3926991850884156e+00 1.5807684796731920e+01 -1 0 0
6440 2147 4 -8.1999999999999995e-01 1.0332463295863091e+01 2.5878114411683826e+00 1.6856727957119627e+01 0 1 0
4870 1624 3 4.0999999999999998e-01 7.2792211357228132e+00 5.2276195986969387e-01 1.7275400757356930e+01 1 -1 2
3866 1289 4 -8.1999999999999995e-01 8.0720525805353460e-01 5.5939037794787474e+00 1.2418021429749858e+01 1 0 -1
5818 1940 3 4.0999999999999998e-01 6.6553318445713527e+00 3.7119287683989790e+00 1.2577444487041021e+01 1 1 1
4025 1342 4 -8.1999999999999995e-01 2.8047551821978542e+00 1.0552145990039600e+01 1.9724190421930825e+01 1 2 0
5721 1907 3 4.0999999999999998e-01 7.5338242498232191e+00 5.8147858934044505e+00 2.0132526961733952e+01 1 2 2
3782 1261 4 -8.1999999999999995e-01 3.4472629907783272e+00 6.8044813218104485e+00 1.5622057921855532e+01 -3 -1 -1
6960 2320 3 4.0999999999999998e-01 4.8685439434743802e+00 6.0503376059594345e+00 1.5504428082340306e+01 -1 -1 1
6939 2313 3 4.0999999999999998e-01 6.9923705148392985e+00 6.6578842206055935e+00 1.5157586509623080e+01 -1 1 -1
5719 1907 3 4.0999999999999998e-01 7.3350954925407130e+00 6.7925758186971406e+00 1.8821202942051919e+01 1 2 2
4500 1500 3 4.0999999999999998e-01 2.7416057425259686e+00 9.1710118820557991e+00 1.2677500334889993e+01 1 -1 0
4499 1500 4 -8.1999999999999995e-01 1.7093886426437543e+00 9.4129508344539872e+00 1.2471441893691065e+01 1 -1 0
6109 2037 3 4.0999999999999998e-01 2.6746228641533127e+00 4.5533628643000110e+00 1.8897843760689138e+01 -1 1 -1
5642 1881 4 -8.1999999999999995e-01 1.4891951303254944e+00 4.9076253264807095e+00 1.7707513015878337e+01 -2 4 2
6118 2040 3 4.0999999999999998e-01 6.5847998904514793e-01 2.8182435350443855e+00 1.3237077432774246e+01 1 -3 0
3919 1307 3 4.0999999999999998e-01 1.4964022030107833e+00 4.7093825383481702e+00 1.1031263534300535e+01 -2 0 1
3867 1289 3 4.0999999999999998e-01 8.3999751560209757e-01 5.1503883631446365e+00 1.3323592226717022e+01 1 0 -1
2664 888 3 4.0999999999999998e-01 3.8692016558805777e+00 7.6612416737520954e+00 1.9518853169970136e+01 0 -2 1
7223 2408 4 -8.1999999999999995e-01 5.5323026165356559e+00 5.9357530326309611e+00 1.2716385019444308e+01 1 -1 1
6937 2313 3 4.0999999999999998e-01 8.6487574727251992e+00 6.8573766407027072e+00 1.4822590092022754e+01 -1 1 -1
3117 1039 3 4.0999999999999998e-01 7.9514598080839551e+00 8.7372869368640202e+00 1.7762131204036951e+01 4 1 -2
3670 1224 3 4.0999999999999998e-01 3.8464613891773878e+00 9.3550099252598642e+00 1.7444152895787337e+01 0 1 0
6958 2320 3 4.0999999999999998e-01 5.9360295489006978e+00 5.0975604437110480e+00 1.6306746567325863e+01 -1 -1 1
4993 1665 3 4.0999999999999998e-01 1.0463076377091779e+01 2.7096388720142413e+00 1.9201032302053598e+01 3 1 -3
119 40 4 -8.1999999999999995e-01 2.9898632379030682e-01 7.2950008763941687e+00 1.6993042838986383e+01 -2 2 0
6482 2161 4 -8.1999999999999995e-01 7.9731359973860831e+00 7.0221775368466837e+00 1.1618746046203588e+01 -1 -1 0
5643 1881 3 4.0999999999999998e-01 1.1149153476047824e+00 5.8651218997131824e+00 1.7592224778456831e+01 -2 4 2
3843 1281 3 4.0999999999999998e-01 3.1995059856768600e+00 2.9125239272797145e+00 1.4205027541647290e+01 1 1 -1
1319 440 4 -8.1999999999999995e-01 9.8360259448449909e+00 4.5515559620260495e+00 1.2422337898790119e+01 1 0 3
1320 440 3 4.0999999999999998e-01 1.0100645984153358e+01 5.4647704934649921e+00 1.2017212628419525e+01 1 0 3
5641 1881 3 4.0999999999999998e-01 6.3600474974214216e-01 4.3572828437659759e+00 1.8004298110562516e+01 -2 4 2
6643 2215 3 4.0999999999999998e-01 1.0167888906075097e+01 7.5986533343700078e+00 2.0782588012685117e+01 1 0 1
3921 1307 3 4.0999999999999998e-01 2.8320906833450752e+00 3.6862691885067034e+00 1.0991483899719768e+01 -2 0 1
2352 784 3 4.0999999999999998e-01 1.0447256087397383e+01 6.8807382074735450e+00 1.4282421547647909e+01 2 1 1
6447 2149 3 4.0999999999999998e-01 2.9238783349514802e-01 1.0389813088716794e+01 1.7529205377617195e+01 0 0 1
3671 1224 4 -8.1999999999999995e-01 4.0696906352750588e+00 1.0314789374668633e+01 1.7144048486493297e+01 0 1 0
4657 1553 3 4.0999999999999998e-01 8.3854421580457714e+00 2.4218326490665132e+00 2.0702010030818968e+01 1 2 1
6400 2134 3 4.0999999999999998e-01 6.1959315691435561e+00 1.0542838157430161e+01 1.4241265631317217e+01 -1 3 -2
2877 959 3 4.0999999999999998e-01 1.0462581675314077e+01 7.8766203121447675e-01 1.7387779923139014e+01 3 -1 -1
1350 450 3 4.0999999999999998e-01 5.2086657694844032e+00 3.1720366546429077e+00 1.0972729242043712e+01 2 0 -1
3927 1309 3 4.0999999999999998e-01 1.6923461549454899e+00 8.5831915756408588e+00 1.0735454745529246e+01 2 3 1
1098 366 3 4.0999999999999998e-01 1.0479737653737049e+01 9.5923306557104500e+00 1.9960010151541397e+01 -3 -4 -2
3672 1224 3 4.0999999999999998e-01 3.2764978565678704e+00 1.0469572015491503e+01 1.6586495217745959e+01 0 1 0
4024 1342 3 4.0999999999999998e-01 3.5453742170224474e+00 1.0567043926271779e+01 1.9036870166909662e+01 1 2 0
3991 1331 3 4.0999999999999998e-01 5.6334342255482488e+00 2.0400337585515096e-01 1.2269944258866733e+01 1 1 0
6153 2051 3 4.0999999999999998e-01 4.2051739613258583e+00 4.0552950707198407e+00 2.0941936381242488e+01 1 2 -1
4335 1445 3 4.0999999999999998e-01 9.3563607939541829e+00 3.1595229053371809e-01 2.3748325075594586e+01 1 -2 -1
6146 2049 4 -8.1999999999999995e-01 3.8621348630152403e+00 9.7083705119913795e+00 2.8873394658215222e+01 0 0 0
4611 1537 3 4.0999999999999998e-01 3.0525488198424195e+00 2.6715017516883510e-01 2.1472238362314897e+01 2 0 1
7114 2372 3 4.0999999999999998e-01 2.1915735419001359e-01 5.2552905391129414e+00 2.3264443910867037e+01 -2 1 0
4177 1393 3 4.0999999999999998e-01 1.0211905488330313e+01 1.7768400510335347e+00 2.4808809069395185e+01 -2 -2 1
3951 1317 3 4.0999999999999998e-01 8.6049453135431941e-01 3.5157424963235067e+00 2.7205309096600768e+01 -1 1 0
6034 2012 3 4.0999999999999998e-01 7.3728310914303581e+00 6.0552669098863330e+00 2.9538799209982404e+01 0 1 -2
820 274 3 4.0999999999999998e-01 1.3411334491011815e+00 3.8342345065609602e+00 2.9398421919478476e+01 1 1 -1
129 43 3 4.0999999999999998e-01 1.3640316176614953e+00 9.6712782988504031e+00 2.4117664058362955e+01 1 0 2
1791 597 3 4.0999999999999998e-01 3.5517850373965452e+00 8.4520193145481859e-01 2.4299302513971419e+01 1 -2 2
2679 893 3 4.0999999999999998e-01 4.2792574571988267e+00 7.5700594419158698e+00 2.3798856080371770e+01 2 -1 2
1606 536 3 4.0999999999999998e-01 5.3640106574563902e+00 8.3790607497736840e+00 2.5763518151967634e+01 -2 -2 1
2678 893 4 -8.1999999999999995e-01 3.7402960961649665e+00 7.6933052684111995e+00 2.4618871195497270e+01 2 -1 2
1970 657 4 -8.1999999999999995e-01 5.3745059330740466e+00 3.5064801269306534e+00 2.4402992396057233e+01 1 -2 0
1971 657 3 4.0999999999999998e-01 5.1308154313980259e+00 2.5344320837888121e+00 2.4442571535532842e+01 1 -2 0
6901 2301 3 4.0999999999999998e-01 2.7332136048227723e-01 5.7206750421946220e+00 2.7669971269311613e+01 -1 -1 1
2617 873 3 4.0999999999999998e-01 7.7111638763605299e+00 5.7136194894823396e+00 2.2560192138096976e+01 1 1 -1
1547 516 4 -8.1999999999999995e-01 1.0203901247458710e+01 5.5641930995145099e+00 3.0645997215199223e+01 0 2 -1
4474 1492 3 4.0999999999999998e-01 9.8879250441691493e+00 4.8263614460169496e-01 3.1077675884884137e+01 -2 1 3
4534 1512 3 4.0999999999999998e-01 2.2170490739182864e+00 4.6276223762360411e+00 2.6003915720595487e+01 1 -2 0
4103 1368 4 -8.1999999999999995e-01 7.5019557495574505e+00 7.3320584279712300e+00 2.3471659844946270e+01 2 -1 -4
5899 1967 3 4.0999999999999998e-01 3.1685225113210067e+00 2.6417209414995262e+00 3.0472007709549356e+01 1 2 3
1030 344 3 4.0999999999999998e-01 9.2475373680736226e+00 2.4313168099495517e+00 3.0849579614501909e+01 2 0 1
4333 1445 3 4.0999999999999998e-01 8.1103025043188808e+00 3.4820448746843241e-01 2.4855623348745905e+01 1 -2 -1
4658 1553 4 -8.1999999999999995e-01 7.5694716557897950e+00 2.4381801155103240e+00 2.1364873337988215e+01 1 2 1
2203 735 3 4.0999999999999998e-01 7.3740771589221659e+00 3.9479896158638828e+00 2.4449671194247614e+01 1 -1 -1
5966 1989 4 -8.1999999999999995e-01 8.6519837291196477e+00 6.7949362546110592e+00 2.8858852278407085e+01 2 2 0
2008 670 3 4.0999999999999998e-01 5.2659955500423630e+00 2.6211315603624756e+00 2.9528710718731521e+01 1 -1 0
6997 2333 3 4.0999999999999998e-01 1.9607957984472937e+00 9.7047742725369854e+00 3.0238856875908514e+01 -1 2 -1
2515 839 3 4.0999999999999998e-01 8.6596353642187118e+00 8.4774541811501507e+00 2.8061297640917651e+01 1 -2 -1
6456 2152 3 4.0999999999999998e-01 8.7819196396634904e+00 8.1436628076505055e+00 2.2643826686007937e+01 0 0 0
6035 2012 4 -8.1999999999999995e-01 6.9080210757903782e+00 5.3766248048003531e+00 3.0184081245156062e+01 0 1 -2
6036 2012 3 4.0999999999999998e-01 6.8150160075479391e+00 4.5141787600047518e+00 2.9636654798351788e+01 0 1 -2
4659 1553 3 4.0999999999999998e-01 7.1987245276570553e+00 1.4190229712645908e+00 2.1449324674729780e+01 1 2 1
7197 2399 3 4.0999999999999998e-01 8.7978146265284907e-01 8.4297894142411725e+00 2.2395305068670957e+01 2 -1 1