LAMMPS data file via write_data, version 5 Jun 2019, timestep = 15000000

7349 atoms
5 atom types
4899 bonds
2 bond types
2451 angles
2 angle types
1 impropers
1 improper types

1.5519297081455363e-01 4.1845807029189409e+01 xlo xhi
1.5469297081455124e-01 4.1845307029189406e+01 ylo yhi
1.5469297081455124e-01 4.1845307029189406e+01 zlo zhi

#Masses
#
#1 12.01
#2 40.08
#3 1.01
#4 16
#5 16
#
#Bond Coeffs # harmonic
#
#1 20.4246 1.3042
#2 22.965 1.012

Atoms # full

5309 1770 4 -8.1999999999999995e-01 7.6964347596374845e+00 8.7849373072904005e+00 9.9197617613101468e+00 -1 3 3
6172 2058 3 4.0999999999999998e-01 4.7184460012622127e+00 2.3756916305699081e+00 6.1360855742719220e+00 3 -1 3
5199 1733 3 4.0999999999999998e-01 5.4480684264937622e+00 6.3349670290772924e+00 1.6421498042780269e+00 -1 -4 2
2927 976 4 -8.1999999999999995e-01 7.8664927067686694e+00 3.0671511493021546e+00 2.5979526829413699e+00 -1 -7 1
437 146 4 -8.1999999999999995e-01 7.0690332394149156e+00 1.5912036462714445e+00 4.2573987102440203e-01 -1 -2 3
7242 2414 3 4.0999999999999998e-01 6.3604272541755149e+00 2.2057040874045426e+00 9.4228505834465928e+00 2 1 3
2227 743 3 4.0999999999999998e-01 8.5341480747681366e+00 2.1539748276639425e+00 4.6363225499016618e+00 1 0 1
5587 1863 3 4.0999999999999998e-01 5.5330698848500122e+00 5.5879924697048269e+00 8.1829303933020565e+00 -1 0 -3
31 11 3 4.0999999999999998e-01 3.3652114224221203e+00 6.0626418144081207e+00 6.7975494626026327e+00 -2 2 1
6649 2217 3 4.0999999999999998e-01 9.8630829940889042e-01 2.2650681752364306e+00 2.4007974076433967e+00 0 -2 0
5650 1884 3 4.0999999999999998e-01 8.6470420547040181e+00 3.8933799751081671e-01 9.0412980046679969e+00 2 2 -2
6624 2208 3 4.0999999999999998e-01 3.1993570189583993e+00 4.7202744165132406e+00 8.1258464773777328e-01 -3 -1 1
3578 1193 4 -8.1999999999999995e-01 3.9784975931822579e+00 8.7423827848972220e+00 2.3648415704623464e+00 -3 4 2
4512 1504 3 4.0999999999999998e-01 4.4262553899578263e+00 2.1476734569326363e+00 8.6824109193147336e+00 -1 0 0
5054 1685 4 -8.1999999999999995e-01 6.6014578150532337e+00 6.5179609750645522e+00 5.4378072323174553e+00 1 -3 -1
6683 2228 4 -8.1999999999999995e-01 3.0323646560059268e+00 9.4645786022842660e-01 2.7766881783137559e-01 3 -3 -1
3577 1193 3 4.0999999999999998e-01 3.8830158063641651e+00 8.0500940957552949e+00 1.5339233605222773e+00 -3 4 2
3104 1035 4 -8.1999999999999995e-01 8.4672886976536326e+00 9.1457871450841548e+00 7.1788072334723587e+00 1 1 1
2312 771 4 -8.1999999999999995e-01 3.0118285608976212e+00 2.8914907267665115e+00 4.7924003720661608e+00 -3 0 1
6650 2217 4 -8.1999999999999995e-01 2.0290126553462891e+00 2.2389101862084781e+00 2.2466437156173091e+00 0 -2 0
3018 1006 3 4.0999999999999998e-01 4.2768035076019872e+00 3.2830279234470394e+00 3.2756056496273174e+00 1 0 -2
1769 590 4 -8.1999999999999995e-01 3.2901954152013100e+00 8.8670569095996061e+00 8.3818351620910487e+00 3 1 -2
6684 2228 3 4.0999999999999998e-01 2.6785499992657229e+00 1.2479605524237496e+00 1.1831779229980293e+00 3 -3 -1
1563 521 3 4.0999999999999998e-01 2.4631931686550832e+00 7.6896398625393401e+00 5.2960688133839433e+00 -2 1 -3
5683 1895 3 4.0999999999999998e-01 6.5062593135187408e+00 9.7416055808948823e+00 4.2769643076740680e+00 0 -2 4
3105 1035 3 4.0999999999999998e-01 8.3945964539672033e+00 8.4351331180085438e+00 6.4493882928597825e+00 1 1 1
5310 1770 3 4.0999999999999998e-01 7.2774353299657637e+00 8.4309118627552362e+00 9.0820060563476108e+00 -1 3 3
3698 1233 4 -8.1999999999999995e-01 7.9661627896018077e+00 4.3443663128275283e+00 6.9248546230574179e+00 5 2 1
1443 481 3 4.0999999999999998e-01 9.4700063092844218e+00 7.3667272886275592e-01 6.2079181350086348e+00 1 1 1
4929 1643 3 4.0999999999999998e-01 9.9403903540184828e+00 4.6576497812455058e+00 9.3127337972166604e+00 0 1 2
6173 2058 4 -8.1999999999999995e-01 5.3761548386398683e+00 2.6737319826211534e+00 6.7837173899853225e+00 3 -1 3
1770 590 3 4.0999999999999998e-01 3.3124369325264920e+00 8.4637215882043790e+00 9.3529678278943695e+00 3 1 -2
6292 2098 3 4.0999999999999998e-01 1.1597757225335585e+00 2.2631443138316967e+00 7.0743162801725434e+00 -3 1 -2
5684 1895 4 -8.1999999999999995e-01 6.0072871209635830e+00 8.9149064854018789e+00 4.0178489770270023e+00 0 -2 4
5685 1895 3 4.0999999999999998e-01 5.2419578622666219e+00 9.1769535833217670e+00 3.3363625414033402e+00 0 -2 4
6447 2149 3 4.0999999999999998e-01 1.9776478793663601e+00 9.8310209821126069e+00 9.3361691849624027e+00 0 1 -1
5198 1733 4 -8.1999999999999995e-01 6.2695208164837952e+00 6.8471713899609190e+00 1.8986259019813538e+00 -1 -4 2
1768 590 3 4.0999999999999998e-01 2.9359215387878659e+00 8.1324230217424436e+00 7.7656390509835287e+00 3 1 -2
7144 2382 3 4.0999999999999998e-01 7.0842117503755855e+00 7.4767975370609738e+00 4.7043008731821645e-01 -2 -3 -1
438 146 3 4.0999999999999998e-01 6.1639108476477933e+00 1.1857672015815865e+00 5.0076552290818910e-01 -1 -2 3
5845 1949 3 4.0999999999999998e-01 8.3826062438480733e+00 1.0556599515700006e+01 6.1522231985716092e-01 -2 -1 1
4860 1620 3 4.0999999999999998e-01 4.8789746481788815e-01 6.1933207780324064e+00 8.4188162730962119e+00 -1 1 0
7081 2361 3 4.0999999999999998e-01 9.7007067223085475e+00 5.4596184070769107e+00 2.8263301316118445e+00 0 -3 3
3103 1035 3 4.0999999999999998e-01 9.4333367724075075e+00 9.4951259586713466e+00 7.1861362837868237e+00 1 1 1
7241 2414 4 -8.1999999999999995e-01 6.8411602613012663e+00 2.5292885980251727e+00 1.0238217432913514e+01 2 1 3
4927 1643 3 4.0999999999999998e-01 9.3238330053014451e+00 4.9079862622192438e+00 7.7553975066392153e+00 0 1 2
32 11 4 -8.1999999999999995e-01 2.5310389802288125e+00 6.7573681432649328e+00 6.7533569937507378e+00 -2 2 1
33 11 3 4.0999999999999998e-01 1.6275899132284275e+00 6.2317626670313384e+00 6.6585416509858950e+00 -2 2 1
5696 1899 4 -8.1999999999999995e-01 3.0694497633390774e+00 5.2310732648316609e+00 9.9265912231661897e+00 -3 1 -1
1857 619 3 4.0999999999999998e-01 3.7572069311729246e+00 1.0443895809623303e+01 8.0569074577328568e+00 4 4 1
5589 1863 3 4.0999999999999998e-01 5.7076888860537478e+00 5.8195337661587798e+00 6.5281484725416732e+00 -1 0 -3
3076 1026 3 4.0999999999999998e-01 8.1439663750596747e+00 4.5807807715500779e+00 3.0800809948917016e+00 1 2 0
5189 1730 4 -8.1999999999999995e-01 5.9717060963777922e+00 5.2967779315758960e+00 9.8324259413242725e+00 1 3 0
5588 1863 4 -8.1999999999999995e-01 5.2184015359711298e+00 5.2879267182033347e+00 7.2647088151443828e+00 -1 0 -3
3697 1233 3 4.0999999999999998e-01 7.2227390934169486e+00 3.6544226792944019e+00 7.0631689700407669e+00 5 2 1
4338 1446 3 4.0999999999999998e-01 5.7710429582365275e-01 4.4235029432020889e+00 7.0001053655668866e+00 4 2 -1
5190 1730 3 4.0999999999999998e-01 6.2266255621716615e+00 4.3541549015693422e+00 1.0225387414760897e+01 1 3 0
5695 1899 3 4.0999999999999998e-01 4.0075663739115335e+00 5.3892465907318279e+00 9.6739448750266117e+00 -3 1 -1
2311 771 3 4.0999999999999998e-01 2.4666960278575516e+00 3.6050231091051952e+00 5.3122009939485224e+00 -3 0 1
4511 1504 4 -8.1999999999999995e-01 3.5111307917647543e+00 2.4742241822132396e+00 8.9511171113403822e+00 -1 0 0
5197 1733 3 4.0999999999999998e-01 5.9824518807104763e+00 7.6603327163978916e+00 2.4765686020340891e+00 -1 -4 2
436 146 3 4.0999999999999998e-01 7.6898281273719480e+00 8.3837925558121151e-01 2.7596998423626590e-01 -1 -2 3
5053 1685 3 4.0999999999999998e-01 6.4927027307124474e+00 7.5276350203422764e+00 5.1898568426710581e+00 1 -3 -1
2228 743 4 -8.1999999999999995e-01 8.9863611619947363e+00 2.2813426116818687e+00 5.5337333798925545e+00 1 0 1
4510 1504 3 4.0999999999999998e-01 3.0862797401252022e+00 1.5540346887279952e+00 9.3502722048416160e+00 -1 0 0
2853 951 3 4.0999999999999998e-01 9.1227880364959653e+00 8.9947572430903371e+00 1.6966753662528251e+00 1 -1 -1
6294 2098 3 4.0999999999999998e-01 2.3482690675172897e+00 3.1494199175675894e+00 7.7913606264045887e+00 -3 1 -2
5651 1884 4 -8.1999999999999995e-01 9.5385710592918667e+00 7.6703712950574732e-01 8.7639970567538317e+00 2 2 -2
4859 1620 4 -8.1999999999999995e-01 5.0105740342392502e-01 6.1774056762021994e+00 9.4298852431554199e+00 -1 1 0
5697 1899 3 4.0999999999999998e-01 2.9195264907843117e+00 4.2709786482625383e+00 9.4933505855623519e+00 -3 1 -1
3017 1006 4 -8.1999999999999995e-01 5.2335299961051405e+00 3.6174724377176193e+00 3.0083407721727022e+00 1 0 -2
4858 1620 3 4.0999999999999998e-01 1.4230744888418225e+00 5.8022909118235306e+00 9.7252763353817127e+00 -1 1 0
2229 743 3 4.0999999999999998e-01 8.5587847245812494e+00 3.0577642627165598e+00 6.0803118296316949e+00 1 0 1
3579 1193 3 4.0999999999999998e-01 3.2270093966016336e+00 8.4969470299748266e+00 3.0446480252542765e+00 -3 4 2
2928 976 3 4.0999999999999998e-01 7.8537268329622663e+00 2.6995401898417701e+00 1.6678659739413242e+00 -1 -7 1
4258 1420 3 4.0999999999999998e-01 3.0927479482064215e+00 9.8725621804370345e+00 4.7138235178895025e+00 2 1 1
845 282 4 -8.1999999999999995e-01 2.3420869278346479e+00 5.5039646789039764e-01 5.7571225088112072e+00 0 -2 -2
3016 1006 3 4.0999999999999998e-01 5.1057753339934138e+00 4.1745894377237089e+00 2.0826207288481173e+00 1 0 -2
6623 2208 4 -8.1999999999999995e-01 4.1970401152400933e+00 4.5956953865423023e+00 6.1913256882823930e-01 -3 -1 1
7082 2361 4 -8.1999999999999995e-01 1.0438889163292005e+01 5.2299996920505771e+00 2.1061739154022665e+00 0 -3 3
2191 731 3 4.0999999999999998e-01 4.0583080557681130e+00 9.9683148369692987e+00 1.3627135954999581e+00 0 0 3
1561 521 3 4.0999999999999998e-01 1.3562375691726114e+00 8.0604640925672157e+00 4.1074609187226923e+00 -2 1 -3
3077 1026 4 -8.1999999999999995e-01 8.0680689197982520e+00 5.5592076797608616e+00 3.3948692326357377e+00 1 2 0
2313 771 3 4.0999999999999998e-01 2.8468585427731190e+00 2.0051494739489173e+00 5.2147901560589016e+00 -3 0 1
2926 976 3 4.0999999999999998e-01 6.9809050159667123e+00 2.9984865345197509e+00 3.0696700248473534e+00 -1 -7 1
4696 1566 3 4.0999999999999998e-01 9.6395095352661304e+00 1.9808843606772393e+00 1.8967115669251904e+00 3 -3 3
3078 1026 3 4.0999999999999998e-01 7.3487558061454319e+00 5.9321497812521713e+00 2.7486003118712823e+00 1 2 0
6651 2217 3 4.0999999999999998e-01 2.4161358733402478e+00 2.4712557233637629e+00 3.1569722624480048e+00 0 -2 0
1562 521 4 -8.1999999999999995e-01 2.3314317592307123e+00 8.1397800575456287e+00 4.3323473688172385e+00 -2 1 -3
5268 1756 3 4.0999999999999998e-01 8.6961224134213388e+00 7.4851240577895570e+00 4.1193166575130027e+00 -1 -3 0
5055 1685 3 4.0999999999999998e-01 7.0233921516650915e+00 6.0820305184932426e+00 4.6417520341415770e+00 1 -3 -1
6293 2098 4 -8.1999999999999995e-01 1.5330179459429558e+00 3.2099870583180508e+00 7.1421341027525633e+00 -3 1 -2
7275 2425 3 4.0999999999999998e-01 1.0556208201092000e+01 1.1921287138331238e+00 1.0056556904849947e+01 -1 -1 0
5266 1756 3 4.0999999999999998e-01 9.6412103648432304e+00 8.8193708267048851e+00 4.2816777751484469e+00 -1 -3 0
6174 2058 3 4.0999999999999998e-01 5.3650315431646991e+00 3.6901902681813477e+00 6.8988214916487820e+00 3 -1 3
3130 1044 3 4.0999999999999998e-01 9.7443244332594825e-01 6.2350123938184137e+00 7.1549946418306853e-01 1 0 0
6446 2149 4 -8.1999999999999995e-01 1.6734695825637971e+00 1.0404000418917796e+01 1.0182399380299557e+01 0 1 -1
2851 951 3 4.0999999999999998e-01 9.5818542384701253e+00 1.0571734442552929e+01 1.9462423593809384e+00 1 -1 -1
6351 2117 3 4.0999999999999998e-01 9.2152636670986183e+00 4.9679279840559953e+00 6.5812207709771631e-01 -4 -1 4
5267 1756 4 -8.1999999999999995e-01 9.6085970507041036e+00 7.8206877983562126e+00 4.3665238191316922e+00 -1 -3 0
4928 1643 4 -8.1999999999999995e-01 1.0126684690566620e+01 5.1203928908092493e+00 8.3742724070904639e+00 0 1 2
3699 1233 3 4.0999999999999998e-01 7.6466481931126333e+00 5.1683992704984423e+00 6.4803777488761503e+00 5 2 1
2519 840 4 -8.1999999999999995e-01 1.5643607859384900e-01 7.5789393683931481e+00 1.5199199119460138e+00 3 1 2
5652 1884 3 4.0999999999999998e-01 9.7871738157472699e+00 2.7445633061923591e-01 7.8721544345151457e+00 2 2 -2
4337 1446 4 -8.1999999999999995e-01 1.6518115172605452e-01 5.4281368307327371e+00 6.8232181733164108e+00 4 2 -1
2520 840 3 4.0999999999999998e-01 4.5240175525496795e-01 8.1176699911740364e+00 6.5741017579755789e-01 3 1 2
2852 951 4 -8.1999999999999995e-01 8.8402490150857638e+00 9.9184265029178160e+00 2.0108616200940888e+00 1 -1 -1
5308 1770 3 4.0999999999999998e-01 8.7248689115173761e+00 8.8551039783938137e+00 9.7656110572016992e+00 -1 3 3
5948 1983 4 -8.1999999999999995e-01 1.0533264064811553e+01 9.1805431429844155e+00 9.8348842542635460e+00 4 1 3
4697 1566 4 -8.1999999999999995e-01 1.0348496737037241e+01 1.3079294804813404e+00 2.0192879786997175e+00 3 -3 3
4386 1462 3 4.0999999999999998e-01 4.5783072491210008e-01 1.5369512576570823e+00 5.8837287813947658e-01 0 -1 2
1380 460 3 4.0999999999999998e-01 1.0495624360693395e+01 2.1335746887586393e+00 5.5313326599081361e+00 2 2 -1
4255 1419 3 4.0999999999999998e-01 2.7400684088998939e+00 6.8599819500313979e+00 1.6539502807012241e-01 2 1 0
3479 1160 4 -8.1999999999999995e-01 4.7268161523740861e+00 2.0828448937103348e+00 1.2458910300208911e+01 2 0 0
820 274 3 4.0999999999999998e-01 2.5126650155459518e+00 9.5195047132338395e+00 1.4318216680677676e+01 2 2 0
6445 2149 3 4.0999999999999998e-01 2.5053329716941510e+00 1.0518502103046890e+01 1.0839833477462117e+01 0 1 -1
5463 1821 3 4.0999999999999998e-01 4.8286272935498360e+00 7.9012749429924032e+00 1.1158163296722373e+01 1 0 -1
1130 377 4 -8.1999999999999995e-01 6.5737079835539216e+00 1.9425185994840868e+00 1.4765391593369319e+01 0 1 0
2742 914 3 4.0999999999999998e-01 4.4236622477393315e+00 3.2979885613591081e-01 1.7008420173416450e+01 0 -1 0
5403 1801 3 4.0999999999999998e-01 1.9822253705652255e+00 2.3915855304250515e+00 1.4837079226790960e+01 2 0 -4
2687 896 4 -8.1999999999999995e-01 3.7077714368759604e+00 8.8943347048517225e+00 1.3683685819335969e+01 -1 5 1
5718 1906 3 4.0999999999999998e-01 3.2774372798870464e+00 5.8723208483800633e+00 1.4201184854362531e+01 0 1 -5
87 29 3 4.0999999999999998e-01 5.9914682779369794e+00 8.7174022585890558e+00 1.6943424401703819e+01 2 -4 2
4406 1469 4 -8.1999999999999995e-01 1.0179796373932303e+01 9.0052592007635841e+00 1.2427775141087029e+01 0 4 -2
4579 1527 3 4.0999999999999998e-01 3.7075576208290180e+00 3.5160340304044810e+00 1.2763126644160684e+01 -3 3 -1
4580 1527 4 -8.1999999999999995e-01 3.1888032917578268e+00 4.4204783861139045e+00 1.2646551732527650e+01 -3 3 -1
2432 811 4 -8.1999999999999995e-01 8.4453094903260784e+00 4.0539401225612925e+00 2.0787775231015921e+01 0 -3 -3
4327 1443 3 4.0999999999999998e-01 8.9137080986571142e+00 7.2170293334126594e+00 2.0444420321566920e+01 -7 1 -2
430 144 3 4.0999999999999998e-01 4.7671025119756800e+00 8.0019435005187987e+00 1.8788060076259985e+01 1 0 -3
3671 1224 4 -8.1999999999999995e-01 9.3255848327286088e+00 3.8767283942886639e+00 1.0738418658947412e+01 -2 3 3
1414 472 3 4.0999999999999998e-01 7.6062569857468727e+00 7.6449271811694404e+00 1.5346036085685057e+01 3 0 1
821 274 4 -8.1999999999999995e-01 1.9208927366248258e+00 1.0192648983646967e+01 1.4905167636007061e+01 2 2 0
431 144 4 -8.1999999999999995e-01 5.0214892213998104e+00 7.4998247299547653e+00 1.9615660383691779e+01 1 0 -3
1131 377 3 4.0999999999999998e-01 6.2709952677077139e+00 2.9202624295339858e+00 1.4785247410967749e+01 0 1 0
5559 1853 3 4.0999999999999998e-01 3.5607446756369165e-01 4.2280364696841986e+00 1.5383865063332971e+01 1 3 -1
1129 377 3 4.0999999999999998e-01 5.8906928194077439e+00 1.4486370125099217e+00 1.5370329681014063e+01 0 1 0
3059 1020 4 -8.1999999999999995e-01 7.1433911727873536e+00 9.7769303512124150e-01 2.0388210413809908e+01 2 1 -2
5402 1801 4 -8.1999999999999995e-01 2.4593100523761406e+00 2.2168883261939469e+00 1.5712160392571757e+01 2 0 -4
2797 933 3 4.0999999999999998e-01 5.4039119649348066e-01 1.0158350138105673e+01 1.5816394418067640e+01 -2 0 0
4643 1548 4 -8.1999999999999995e-01 7.8129314004647004e+00 6.7268936057370050e+00 1.4026401798737348e+01 -2 0 -3
5952 1984 3 4.0999999999999998e-01 5.8329995336854112e-01 3.1509334568417762e+00 1.7488062801892774e+01 1 -4 3
1985 662 4 -8.1999999999999995e-01 9.0637418586680081e+00 9.3825318533845454e+00 1.8206798527052630e+01 -3 3 0
1813 605 3 4.0999999999999998e-01 2.6386792232409126e+00 3.4459630509749655e+00 1.9299955119491283e+01 2 4 -1
2741 914 4 -8.1999999999999995e-01 4.6731753183954234e+00 1.0280539189846556e+00 1.6373418425698386e+01 0 -1 0
85 29 3 4.0999999999999998e-01 4.4874680215809510e+00 9.4699430402828444e+00 1.6922301798318678e+01 2 -4 2
1984 662 3 4.0999999999999998e-01 8.5390343639908313e+00 8.7162804711422073e+00 1.7599224558988301e+01 -3 3 0
3670 1224 3 4.0999999999999998e-01 9.9093115159635694e+00 3.3992999050755501e+00 1.1388427442598655e+01 -2 3 3
4504 1502 3 4.0999999999999998e-01 9.7219705604410045e-01 9.5492425439964439e+00 1.8466609043215442e+01 -2 -3 -2
5974 1992 3 4.0999999999999998e-01 3.0270472998338467e+00 1.2894400447848513e+00 1.2284482915209081e+01 0 1 0
511 171 3 4.0999999999999998e-01 4.0493664079735074e+00 7.4937129581099251e+00 2.0891640866640643e+01 -1 3 0
4505 1502 4 -8.1999999999999995e-01 1.9781323102541934e+00 9.4563856535770654e+00 1.8448285624269669e+01 -2 -3 -2
4581 1527 3 4.0999999999999998e-01 3.1783071858568346e+00 4.7666826016865089e+00 1.1661857817505071e+01 -3 3 -1
2686 896 3 4.0999999999999998e-01 3.8131532251070643e+00 9.2388973224085760e+00 1.2714213981939979e+01 -1 5 1
5950 1984 3 4.0999999999999998e-01 1.3630071310109799e+00 1.8055777196229201e+00 1.8090879771236832e+01 1 -4 3
571 191 3 4.0999999999999998e-01 4.9858412692178788e+00 5.2282367643477548e+00 1.5027151255593026e+01 -2 -1 -1
4166 1389 4 -8.1999999999999995e-01 1.0556234165998564e+01 7.4819136269568141e+00 1.9745693025815690e+01 3 -2 0
2131 711 3 4.0999999999999998e-01 7.0638383251743218e+00 7.6293311645987156e+00 1.1235015116319021e+01 2 4 1
5701 1901 3 4.0999999999999998e-01 5.2846841421185999e+00 2.3676790482229753e+00 1.7434919980566896e+01 3 -2 -2
4379 1460 4 -8.1999999999999995e-01 1.7759557640511139e+00 7.2843482354925095e+00 1.6631190349395773e+01 0 0 -3
2132 711 4 -8.1999999999999995e-01 6.3508433916325577e+00 7.0785320444259821e+00 1.1751809367693037e+01 2 4 1
378 126 3 4.0999999999999998e-01 9.7297615419815227e+00 3.7781755288668513e+00 1.7475626719088179e+01 2 1 2
1694 565 4 -8.1999999999999995e-01 1.0147573864686553e+01 3.0706073701323744e+00 1.6076683533739327e+01 -1 -1 5
4380 1460 3 4.0999999999999998e-01 2.0454587000648479e+00 7.0232799268640891e+00 1.7586959894307146e+01 0 0 -3
2133 711 3 4.0999999999999998e-01 6.7864933974070372e+00 7.0144559253473133e+00 1.2701395755813367e+01 2 4 1
2431 811 3 4.0999999999999998e-01 8.7374705111772766e+00 4.1306963135722681e+00 1.9785574778319521e+01 0 -3 -3
6171 2057 3 4.0999999999999998e-01 8.5633100625696414e+00 1.9084928608371816e+00 1.3592952057254568e+01 -2 -1 3
5717 1906 4 -8.1999999999999995e-01 3.7262168725180773e+00 6.4505837454152628e+00 1.4840692695263218e+01 0 1 -5
5716 1906 3 4.0999999999999998e-01 3.7793872167283222e+00 7.3183439816053371e+00 1.4282601706021444e+01 0 1 -5
3480 1160 3 4.0999999999999998e-01 4.5955651844376497e+00 1.1670956896702245e+00 1.2921710670472731e+01 2 0 0
572 191 4 -8.1999999999999995e-01 5.6600856079674307e+00 4.4378384597475291e+00 1.5217346647258411e+01 -2 -1 -1
5461 1821 3 4.0999999999999998e-01 3.5152574707782223e+00 7.0343085243799548e+00 1.1132431513941860e+01 1 0 -1
1416 472 3 4.0999999999999998e-01 7.4250091450434441e+00 7.1559442293349642e+00 1.6974639003321652e+01 3 0 1
283 95 3 4.0999999999999998e-01 6.8988465179849410e+00 1.2941052795279078e+00 1.3004182992349229e+01 0 3 4
7254 2418 3 4.0999999999999998e-01 4.9844187875548784e-01 9.9964770840377444e+00 1.3779888349496412e+01 1 -2 -1
5462 1821 4 -8.1999999999999995e-01 3.8291636062756362e+00 7.9747574431707902e+00 1.0894626535546967e+01 1 0 -1
5703 1901 3 4.0999999999999998e-01 4.7201375158780277e+00 3.4657576321041148e+00 1.8634518624945716e+01 3 -2 -2
2868 956 3 4.0999999999999998e-01 1.3789217773432521e+00 4.7454197932247638e-01 1.9891045368861342e+01 -2 4 3
5975 1992 4 -8.1999999999999995e-01 2.1329994668675885e+00 1.0046517939545205e+00 1.2585497359582813e+01 0 1 0
5702 1901 4 -8.1999999999999995e-01 5.4388084301250688e+00 3.3368753521240948e+00 1.7869430635366747e+01 3 -2 -2
77 26 4 -8.1999999999999995e-01 7.2077647131382472e+00 5.6959040760446777e+00 1.7541695639715783e+01 -1 2 -2
4794 1598 3 4.0999999999999998e-01 1.7341297254099004e+00 3.9653467582340269e+00 1.3266209161364991e+01 2 -1 1
4644 1548 3 4.0999999999999998e-01 7.2902555651511927e+00 5.8883023408607791e+00 1.4185925256191792e+01 -2 0 -3
5207 1736 4 -8.1999999999999995e-01 5.5454831702185654e+00 1.0445985981193482e+01 1.5000841278167110e+01 0 3 -4
6169 2057 3 4.0999999999999998e-01 9.8537102414595612e+00 1.5892305596820424e+00 1.2722548028992223e+01 -2 -1 3
5188 1730 3 4.0999999999999998e-01 6.1924245147160324e+00 5.8664259441027902e+00 1.0625180304289058e+01 1 3 0
3478 1160 3 4.0999999999999998e-01 5.6680342924876621e+00 2.1668937080931321e+00 1.1980667506749420e+01 2 0 0
4407 1469 3 4.0999999999999998e-01 1.0302323702087438e+01 9.1658022929779612e+00 1.1427357838387634e+01 0 4 -2
1986 662 3 4.0999999999999998e-01 9.4823506238246829e+00 8.8104137866405221e+00 1.8960020090518640e+01 -3 3 0
5208 1736 3 4.0999999999999998e-01 6.5644072465805383e+00 1.0264785857249738e+01 1.4843860630942428e+01 0 3 -4
5401 1801 3 4.0999999999999998e-01 2.5239238938733930e+00 3.0471541321564084e+00 1.6303735794662963e+01 2 0 -4
2740 914 3 4.0999999999999998e-01 3.8170146949490249e+00 1.4303952118586487e+00 1.5969286427840840e+01 0 -1 0
4450 1484 3 4.0999999999999998e-01 8.8640726433705623e+00 9.4169077109109285e+00 1.3267992648821219e+01 1 0 0
376 126 3 4.0999999999999998e-01 1.0365888858105020e+01 4.7856465289283667e+00 1.8660273279818252e+01 2 1 2
4452 1484 3 4.0999999999999998e-01 7.3971879665997786e+00 1.0029990104668197e+01 1.2798857902535461e+01 1 0 0
377 126 4 -8.1999999999999995e-01 9.4776559189365113e+00 4.2388756421786793e+00 1.8410976159410254e+01 2 1 2
5951 1984 4 -8.1999999999999995e-01 1.3132847096231612e+00 2.8183464176622253e+00 1.8119755094887921e+01 1 -4 3
4329 1443 3 4.0999999999999998e-01 7.6969977845869968e+00 6.1508191239235215e+00 2.0249130312808330e+01 -7 1 -2
4793 1598 4 -8.1999999999999995e-01 8.5254422231485960e-01 3.9169289661894324e+00 1.3798393124285267e+01 2 -1 1
573 191 3 4.0999999999999998e-01 5.5218796545440565e+00 4.1551645120886418e+00 1.6186741627016129e+01 -2 -1 -1
86 29 4 -8.1999999999999995e-01 5.2073231597739902e+00 9.1348443411532809e+00 1.7551235008064644e+01 2 -4 2
432 144 3 4.0999999999999998e-01 5.9263391637119511e+00 7.2006618316709243e+00 1.9703654458424534e+01 1 0 -3
4642 1548 3 4.0999999999999998e-01 8.8269121280024514e+00 6.4012237872194300e+00 1.4155177496419228e+01 -2 0 -3
2433 811 3 4.0999999999999998e-01 7.5857468346198225e+00 3.4824939219150699e+00 2.0922856319316967e+01 0 -3 -3
7240 2414 3 4.0999999999999998e-01 7.3159369529471965e+00 1.7514276195026073e+00 1.0729161264018217e+01 2 1 3
2688 896 3 4.0999999999999998e-01 4.4340385121444497e+00 9.3951724457547048e+00 1.4200963000304423e+01 -1 5 1
284 95 4 -8.1999999999999995e-01 7.4714879976965660e+00 9.5816437685206146e-01 1.2218949288909391e+01 0 3 4
6170 2057 4 -8.1999999999999995e-01 9.5941513818661264e+00 1.9386620237308256e+00 1.3638477135712881e+01 -2 -1 3
76 26 3 4.0999999999999998e-01 8.1805083465645492e+00 5.4984421845917799e+00 1.7783837896150541e+01 -1 2 -2
1814 605 4 -8.1999999999999995e-01 3.4942033986186178e+00 3.7389850660946315e+00 1.9772124184850146e+01 2 4 -1
4378 1460 3 4.0999999999999998e-01 2.3575623332013729e+00 6.7340513281908390e+00 1.5971277897416984e+01 0 0 -3
4506 1502 3 4.0999999999999998e-01 2.0958940145011309e+00 8.9734350008318717e+00 1.7534367388686025e+01 -2 -3 -2
1415 472 4 -8.1999999999999995e-01 7.4686746528229220e+00 7.9883835072001208e+00 1.6342920879002726e+01 3 0 1
78 26 3 4.0999999999999998e-01 6.5972421270359352e+00 4.8431494837743561e+00 1.7739282420772941e+01 -1 2 -2
5806 1936 3 4.0999999999999998e-01 5.1808488116230933e-01 2.7632153534914980e+00 2.0123045812291853e+01 0 0 1
3058 1020 3 4.0999999999999998e-01 6.5440848241993725e+00 1.7750617214431550e+00 2.0347832224758079e+01 2 1 -2
7287 2429 3 4.0999999999999998e-01 1.0437919112768716e+01 5.4026658050560279e+00 1.1124994970395115e+01 0 2 1
5638 1880 3 4.0999999999999998e-01 4.6427730191383804e-01 7.9445460367998431e+00 2.0506695479784142e+01 0 0 -3
3060 1020 3 4.0999999999999998e-01 8.1517223869884567e+00 1.1288492756598858e+00 2.0383328005188925e+01 2 1 -2
1695 565 3 4.0999999999999998e-01 9.7899537023728911e+00 2.4643414911275250e+00 1.5228639724717112e+01 -1 -1 5
1802 601 4 -8.1999999999999995e-01 1.0474307007879542e+01 1.9189687164428215e+00 2.0650147421993285e+01 1 0 -1
4328 1443 4 -8.1999999999999995e-01 7.8625061811547079e+00 7.0515835758321126e+00 2.0630690941109894e+01 -7 1 -2
5434 1812 3 4.0999999999999998e-01 5.0171582893594300e+00 3.5391590700561153e+00 2.0602886632568694e+01 -4 0 0
1271 424 4 -8.1999999999999995e-01 1.0425968661978070e+01 5.6348049809989522e+00 1.4504598241402858e+01 0 2 -1
1815 605 3 4.0999999999999998e-01 3.0964655302217747e+00 4.4985592805201575e+00 2.0413174296394125e+01 2 4 -1
1272 424 3 4.0999999999999998e-01 1.0364578136119409e+01 4.7258649594117106e+00 1.5012743528423098e+01 0 2 -1
4451 1484 4 -8.1999999999999995e-01 7.9734041328208756e+00 9.8359480130235415e+00 1.3622183416759862e+01 1 0 0
1693 565 3 4.0999999999999998e-01 1.0431135291848790e+01 2.4184497929567921e+00 1.6811773019502425e+01 -1 -1 5
5807 1936 4 -8.1999999999999995e-01 3.8170243742998766e-01 2.1168934004469691e+00 2.0868239554600628e+01 0 0 1
4405 1469 3 4.0999999999999998e-01 1.0513329051483927e+01 8.0715557098467130e+00 1.2551667339874248e+01 0 4 -2
3672 1224 3 4.0999999999999998e-01 8.4095285791691996e+00 3.4263043283085275e+00 1.0633634260474405e+01 -2 3 3
3802 1268 3 4.0999999999999998e-01 7.6778469184728471e-01 8.7239446155766434e+00 1.1061718857130158e+01 2 2 0
514 172 3 4.0999999999999998e-01 6.7150603603021572e+00 1.0167253806003647e+01 1.0852872766381958e+01 5 -1 -2
2171 724 4 -8.1999999999999995e-01 6.1594308625293479e+00 8.1996030550291970e+00 3.0804590234621067e+01 -2 0 -3
4314 1438 3 4.0999999999999998e-01 9.6806337927581634e+00 4.8006251189402542e+00 2.4755031399968640e+01 -2 2 -1
6436 2146 3 4.0999999999999998e-01 4.2902331227988029e+00 5.5356454634309209e+00 2.3918653678687640e+01 4 0 -2
6438 2146 3 4.0999999999999998e-01 3.8732093008577193e+00 6.8360693650759456e+00 2.3034998602740441e+01 4 0 -2
5436 1812 3 4.0999999999999998e-01 5.5509958458102009e+00 3.4469437228173008e+00 2.2161983052765315e+01 -4 0 0
190 64 3 4.0999999999999998e-01 7.5077011845599522e+00 6.4398193785591396e+00 2.4732258515313806e+01 -2 3 4
6578 2193 4 -8.1999999999999995e-01 6.1539690445345050e+00 1.0334160300032597e+01 2.4076790541745318e+01 0 -3 -1
3443 1148 4 -8.1999999999999995e-01 2.7605951295186801e+00 3.2387719285932786e+00 2.6045566888197904e+01 0 1 -4
6272 2091 4 -8.1999999999999995e-01 6.2451393927088636e+00 6.3855546922800399e-01 2.9269226576816006e+01 1 0 -5
1256 419 4 -8.1999999999999995e-01 2.1359185593846997e+00 5.7928396967327025e+00 2.6135728077842870e+01 0 1 -1
782 261 4 -8.1999999999999995e-01 5.9511657728700094e+00 4.3149029675967068e+00 2.4139297393918479e+01 -1 -1 -3
781 261 3 4.0999999999999998e-01 6.3879994180890778e+00 4.9813057468276778e+00 2.4801682228966531e+01 -1 -1 -3
5714 1905 4 -8.1999999999999995e-01 2.1027207820397886e+00 1.7412698762741736e+00 2.3460162129826958e+01 0 0 2
3884 1295 4 -8.1999999999999995e-01 7.6001937086098348e+00 7.3320800941638202e+00 2.3505290868563712e+01 4 1 0
6437 2146 4 -8.1999999999999995e-01 3.8046089181394875e+00 6.4344269866138797e+00 2.3967004154806045e+01 4 0 -2
4119 1373 3 4.0999999999999998e-01 6.7686322990150094e+00 8.4020618441077239e+00 2.6889046574208425e+01 -1 -2 -3
6273 2091 3 4.0999999999999998e-01 5.5498302913367707e+00 1.3294002434938004e+00 2.9003907566368952e+01 1 0 -5
2365 789 3 4.0999999999999998e-01 8.8224414955186994e+00 2.0541671914850435e-01 2.5885875002765879e+01 0 2 -2
2761 921 3 4.0999999999999998e-01 9.1008852421518167e+00 3.7059977657824550e-01 2.3289490268755046e+01 -1 2 2
5242 1748 3 4.0999999999999998e-01 3.6993623119454901e+00 1.9991989115341915e+00 2.9439604067728439e+01 0 0 2
1077 359 3 4.0999999999999998e-01 8.9914144496348190e+00 7.8424789356771196e+00 2.8128578622334906e+01 -4 0 1
4311 1437 3 4.0999999999999998e-01 6.1581779993424499e+00 9.5165591501117248e+00 2.1650991053439888e+01 0 -1 1
4947 1649 3 4.0999999999999998e-01 1.0404474120059525e+01 9.7645977010699792e+00 2.7791866349070126e+01 -2 2 1
4117 1373 3 4.0999999999999998e-01 5.2626643695624944e+00 8.6186124196347293e+00 2.6259441242130148e+01 -1 -2 -3
5243 1748 4 -8.1999999999999995e-01 4.0195318792987003e+00 2.1746156523517137e+00 2.8444201145205405e+01 0 0 2
464 155 4 -8.1999999999999995e-01 3.9356770002438544e+00 1.0398725875674447e+01 2.1881767335813382e+01 0 4 1
1972 658 3 4.0999999999999998e-01 1.9094112589920667e+00 3.9581248730473262e+00 2.8922486502964318e+01 -1 1 4
4118 1373 4 -8.1999999999999995e-01 6.2611555751757084e+00 8.8313350146496798e+00 2.6140287517358164e+01 -1 -2 -3
5435 1812 4 -8.1999999999999995e-01 5.8650615307045202e+00 3.3742733972304344e+00 2.1187218837909626e+01 -4 0 0
2172 724 3 4.0999999999999998e-01 6.3061929728206989e+00 8.9538131756117512e+00 3.0037826851732166e+01 -2 0 -3
2762 921 4 -8.1999999999999995e-01 8.9635008155098994e+00 1.1113331391927912e+00 2.4002418637399778e+01 -1 2 2
5808 1936 3 4.0999999999999998e-01 1.2883950620481368e+00 1.9064379143632457e+00 2.1292764577525052e+01 0 0 1
5715 1905 3 4.0999999999999998e-01 2.5614994328680778e+00 2.3716856830123074e+00 2.4133748212485120e+01 0 0 2
2206 736 3 4.0999999999999998e-01 2.7534836837494434e+00 8.5896256671836611e+00 2.5275516968778224e+01 2 2 3