LAMMPS data file via write_data, version 5 Jun 2019, timestep = 22650000

7349 atoms
5 atom types
4899 bonds
2 bond types
2451 angles
2 angle types
1 impropers
1 improper types

1.5519297081455363e-01 4.1845807029189409e+01 xlo xhi
1.5469297081455124e-01 4.1845307029189406e+01 ylo yhi
1.5469297081455124e-01 4.1845307029189406e+01 zlo zhi

#Masses
#
#1 12.01
#2 40.08
#3 1.01
#4 16
#5 16
#
#Bond Coeffs # harmonic
#
#1 20.4246 1.3042
#2 22.965 1.012

Atoms # full

6526 2176 3 4.0999999999999998e-01 6.6151548010805419e+00 8.4232352094597243e+00 5.6687554298711538e+00 2 1 -3
4761 1587 3 4.0999999999999998e-01 4.6880344076663176e+00 4.5503417651054745e+00 9.1879608726216198e+00 -2 -1 2
2391 797 3 4.0999999999999998e-01 1.4372754792035747e+00 3.3172591744527034e+00 6.5400651216915877e+00 -2 1 3
4020 1340 3 4.0999999999999998e-01 9.8698964771551783e+00 7.3984413631359471e+00 8.8959518630080883e+00 0 0 3
7099 2367 3 4.0999999999999998e-01 2.8961954165702744e+00 2.1938654839533436e-01 5.9770228992313146e-01 2 1 3
2113 705 3 4.0999999999999998e-01 5.0645292261165071e+00 3.0387837175621892e+00 5.7665977316792851e+00 1 -2 3
3161 1054 4 -8.1999999999999995e-01 5.1671157922932363e+00 5.2856202528875640e+00 4.5187712640199598e+00 3 -3 3
5711 1904 4 -8.1999999999999995e-01 7.6081768467377682e+00 2.2387281497255938e+00 3.8394035110575131e+00 0 -1 -4
4256 1419 4 -8.1999999999999995e-01 4.5367322338720104e+00 5.8611143789030944e+00 1.7796423326479884e+00 -1 3 2
4013 1338 4 -8.1999999999999995e-01 8.4426883426698076e+00 7.3753181141066158e+00 5.4171473973362954e+00 1 0 1
6527 2176 4 -8.1999999999999995e-01 5.7153137033651307e+00 8.8742605210350263e+00 5.6350846595434767e+00 2 1 -3
4146 1382 3 4.0999999999999998e-01 9.0496806159723260e+00 4.8170195943960223e+00 1.0837942664401299e+00 -3 0 -2
297 99 3 4.0999999999999998e-01 4.8735857257048005e+00 9.3838575777520248e+00 2.1501985557967118e+00 -1 -2 1
578 193 4 -8.1999999999999995e-01 1.2523615744745227e+00 2.0030465120220762e+00 3.4903925344429894e+00 3 3 0
7218 2406 3 4.0999999999999998e-01 1.0444260205533803e+01 5.3112544409178675e+00 5.6741438591063371e+00 1 3 -2
7053 2351 3 4.0999999999999998e-01 1.9869918874172345e+00 6.9626334323016241e+00 5.1148417627975995e+00 2 -3 -3
2770 924 3 4.0999999999999998e-01 4.5859977220511350e-01 1.0470505898024552e+01 5.9535585725535265e+00 2 3 -3
3160 1054 3 4.0999999999999998e-01 6.0053367118069989e+00 5.7440715437017253e+00 4.3251683313560187e+00 3 -3 3
1997 666 4 -8.1999999999999995e-01 5.4879767528648973e+00 3.8569762753775878e+00 3.9015613342987826e-01 -2 -1 -3
3518 1173 4 -8.1999999999999995e-01 8.1871457836273720e+00 3.5650285905144359e+00 5.9969192211959710e-01 0 0 5
2106 702 3 4.0999999999999998e-01 1.7921829228763060e+00 2.5878739075615118e+00 6.3562811589120005e-01 5 1 3
2331 777 3 4.0999999999999998e-01 3.9057048321682220e+00 1.0079513504757598e+01 7.7561250120497691e+00 -1 -1 -1
4012 1338 3 4.0999999999999998e-01 8.1613708701130747e+00 6.9662259154695096e+00 4.5237398985240906e+00 1 0 1
295 99 3 4.0999999999999998e-01 4.3563903222468747e+00 9.8741468514049462e+00 6.5267794750051089e-01 -1 -2 1
1015 339 3 4.0999999999999998e-01 7.7089206518079658e+00 9.1001133325366990e+00 1.0032340011779585e+01 3 2 2
4019 1340 4 -8.1999999999999995e-01 9.2413331215199026e+00 7.9903387183731702e+00 9.4214564490223278e+00 0 0 3
6970 2324 3 4.0999999999999998e-01 8.3681585150964271e+00 5.9182335149397174e+00 2.6292865951706181e+00 1 -1 -1
3465 1155 3 4.0999999999999998e-01 8.9890597102364538e+00 4.4602265542751711e+00 9.1685747779320792e+00 -2 1 -1
4987 1663 3 4.0999999999999998e-01 3.7565469607589694e+00 7.7250346916612367e-01 3.0094996809534709e+00 0 1 2
269 90 4 -8.1999999999999995e-01 4.4511556157992249e+00 8.7656787415609683e-01 8.4863918163624135e+00 0 0 -4
2848 950 3 4.0999999999999998e-01 6.0709361460523228e+00 2.6378832330673574e+00 1.0536069810633572e+01 -1 -1 -2
2109 703 3 4.0999999999999998e-01 9.6458164742357422e+00 8.4465023792383409e+00 2.8106294707623034e+00 -3 -1 -1
4989 1663 3 4.0999999999999998e-01 4.7224806047486485e+00 9.4505116304617209e-01 4.4259629397981373e+00 0 1 2
5882 1961 4 -8.1999999999999995e-01 4.0448312099512895e+00 8.8040736289060604e+00 3.4444913330848732e+00 -1 -1 2
1374 458 3 4.0999999999999998e-01 2.0313011615773560e+00 2.6502456426704646e-01 6.0490799037449161e+00 -2 0 3
4993 1665 3 4.0999999999999998e-01 7.7400896524820189e+00 8.1170835356885285e-01 7.4483469525691586e+00 6 4 -2
7101 2367 3 4.0999999999999998e-01 3.9928968916758003e+00 1.3853509905704853e+00 4.8906456506919760e-01 2 1 3
2389 797 3 4.0999999999999998e-01 1.9955441985039371e+00 4.8577150099694695e+00 6.6807834243644919e+00 -2 1 3
2114 705 4 -8.1999999999999995e-01 5.3721975749823017e+00 2.2938422743269355e+00 5.2007472002790811e+00 1 -2 3
1777 593 3 4.0999999999999998e-01 2.3765726129343268e-01 1.0515989622463481e+01 1.9432406530493880e+00 -1 -1 4
2772 924 3 4.0999999999999998e-01 1.1923049098999370e+00 9.2442572946340977e+00 4.9131373146022810e+00 2 3 -3
6972 2324 3 4.0999999999999998e-01 6.9967291879205815e+00 6.6763164021686787e+00 2.2848516553775315e+00 1 -1 -1
7217 2406 4 -8.1999999999999995e-01 9.6235844463951636e+00 5.2817082185710644e+00 6.3181129269739387e+00 1 3 -2
2390 797 4 -8.1999999999999995e-01 1.1728619417273600e+00 4.2226322867614359e+00 6.7812884313874786e+00 -2 1 3
4306 1436 3 4.0999999999999998e-01 4.0830675387133974e-01 4.9610924309492370e+00 2.0223630867654165e+00 1 3 0
7052 2351 4 -8.1999999999999995e-01 1.6100094549974107e+00 7.4803214334049635e+00 4.3037439693821415e+00 2 -3 -3
4018 1340 3 4.0999999999999998e-01 9.7539026634102939e+00 8.5993545638264450e+00 1.0037292198736530e+01 0 0 3
7216 2406 3 4.0999999999999998e-01 8.9258267136711051e+00 5.9507980230745092e+00 5.9978008904911029e+00 1 3 -2
4760 1587 4 -8.1999999999999995e-01 3.9273279865183874e+00 5.0943225078850025e+00 8.8375158314071367e+00 -2 -1 2
6908 2303 4 -8.1999999999999995e-01 9.7059203420260864e+00 9.7655580262353645e+00 5.0312585019345466e+00 1 0 -4
7100 2367 4 -8.1999999999999995e-01 3.0483768598324712e+00 1.1803691328499324e+00 8.6820772057880435e-01 2 1 3
4231 1411 3 4.0999999999999998e-01 1.0178730506988630e+01 2.9550597756242575e-01 7.2778697976233984e+00 -1 -1 1
5712 1904 3 4.0999999999999998e-01 8.3409883453592464e+00 2.7382167603599163e+00 3.3660639269760728e+00 0 -1 -4
1372 458 3 4.0999999999999998e-01 1.4504989310611753e+00 1.5106159476893219e+00 5.0449087034847055e+00 -2 0 3
2697 899 3 4.0999999999999998e-01 7.3995201277555867e-01 1.0003599054102517e+01 1.0462396837747859e+01 2 1 -1
2674 892 3 4.0999999999999998e-01 9.2607812536466447e+00 1.0550895422837939e+01 6.4833750187241215e+00 2 -4 -2
3463 1155 3 4.0999999999999998e-01 9.0414617279351841e+00 4.0976735266249280e+00 7.5190367284885804e+00 -2 1 -1
4988 1663 4 -8.1999999999999995e-01 4.2635344761946090e+00 2.9333767569853753e-01 3.7805947124285240e+00 0 1 2
6180 2060 3 4.0999999999999998e-01 8.3566543661065769e+00 9.3992476890995462e+00 1.5649965792296698e+00 0 -4 4
2115 705 3 4.0999999999999998e-01 6.0296910264374901e+00 2.5112271089368958e+00 4.4080025769318976e+00 1 -2 3
4257 1419 3 4.0999999999999998e-01 3.6998122862844971e+00 6.0847716064678874e+00 1.2380497811148388e+00 -1 3 2
1996 666 3 4.0999999999999998e-01 5.3218094088754437e+00 4.5738482543308505e+00 1.1002236378604711e+00 -2 -1 -3
4145 1382 4 -8.1999999999999995e-01 9.4609671840922243e+00 5.7715879281841396e+00 1.1165130730631678e+00 -3 0 -2
3565 1189 3 4.0999999999999998e-01 1.0451175781649138e+01 6.1928530842898493e+00 7.6121124655072885e+00 4 2 -1
4014 1338 3 4.0999999999999998e-01 8.9731885356587178e+00 8.2236148025597089e+00 5.3072954987908689e+00 1 0 1
579 193 3 4.0999999999999998e-01 1.5299800473673129e+00 1.9615347743030258e+00 2.5408387498791978e+00 3 3 0
6528 2176 3 4.0999999999999998e-01 5.8620744195749239e+00 9.8449453337422401e+00 5.6848287627443632e+00 2 1 -3
2676 892 3 4.0999999999999998e-01 8.6175367417307740e+00 1.0009905491606915e+01 7.9284834203950387e+00 2 -4 -2
2105 702 4 -8.1999999999999995e-01 9.3959635767796201e-01 3.1414703581702339e+00 6.2774833850880984e-01 5 1 3
5155 1719 3 4.0999999999999998e-01 1.1372218836751222e+00 5.4579680540142572e+00 1.0134816011676911e+01 -1 4 4
5883 1961 3 4.0999999999999998e-01 4.7295132388827277e+00 8.4933278842740592e+00 4.1314799083205793e+00 -1 -1 2
7127 2376 4 -8.1999999999999995e-01 6.7652195980746894e+00 7.1137528533260177e+00 9.8756614436752912e+00 1 -1 3
5881 1961 3 4.0999999999999998e-01 3.1006947969439715e+00 8.7342445223596439e+00 3.7092071000345856e+00 -1 -1 2
6971 2324 4 -8.1999999999999995e-01 7.5449159409883437e+00 6.3479937360086227e+00 3.0782850479502897e+00 1 -1 -1
6758 2253 4 -8.1999999999999995e-01 6.5328007589496284e+00 7.4532343653324453e+00 5.9504588646795875e-01 -1 3 0
296 99 4 -8.1999999999999995e-01 5.1916668411599636e+00 9.8027327405554701e+00 1.2568602927959480e+00 -1 -2 1
2764 922 3 4.0999999999999998e-01 3.5075089471781968e+00 6.0181246564489941e+00 7.2624442693663580e+00 -3 1 2
6179 2060 4 -8.1999999999999995e-01 8.9287775642198834e+00 9.7965361267229198e+00 2.3131118259507688e+00 0 -4 4
3162 1054 3 4.0999999999999998e-01 4.6330985365506185e+00 5.3166340374244898e+00 3.6155193176991149e+00 3 -3 3
4995 1665 3 4.0999999999999998e-01 7.4791904377316802e+00 2.4039229758698575e+00 7.6757619219771707e+00 6 4 -2
7126 2376 3 4.0999999999999998e-01 6.1715466662356677e+00 7.3670083405255422e+00 9.1066211289600663e+00 1 -1 3
7051 2351 3 4.0999999999999998e-01 1.2584036671139260e+00 6.7471685425960741e+00 3.7157176236194243e+00 2 -3 -3
4759 1587 3 4.0999999999999998e-01 3.4059190668185795e+00 5.4003704402086985e+00 9.6277404093950931e+00 -2 -1 2
2108 703 4 -8.1999999999999995e-01 1.0269971839215287e+01 7.6156115748104733e+00 2.8225227562882029e+00 -3 -1 -1
4994 1665 4 -8.1999999999999995e-01 7.1184401365572212e+00 1.4856826108629986e+00 7.9439055630004383e+00 6 4 -2
4255 1419 3 4.0999999999999998e-01 5.2378257602034148e+00 6.5682517666923079e+00 1.4461851239488090e+00 -1 3 2
3464 1155 4 -8.1999999999999995e-01 9.0579894783412218e+00 3.6923282349869693e+00 8.4944038451549417e+00 -2 1 -1
5710 1904 3 4.0999999999999998e-01 8.0127528162507069e+00 1.4026095118374495e+00 4.2898024131108414e+00 0 -1 -4
270 90 3 4.0999999999999998e-01 3.7776446414273903e+00 1.3796138851076514e+00 7.8704056429649381e+00 0 0 -4
268 90 3 4.0999999999999998e-01 5.3750762729767372e+00 1.2007772732540540e+00 8.2134179871095050e+00 0 0 -4
2766 922 3 4.0999999999999998e-01 4.0683919495175562e+00 5.5111999830900249e+00 5.7055711733029257e+00 -3 1 2
6909 2303 3 4.0999999999999998e-01 9.7038728485560810e+00 9.9163360257640640e+00 4.0358514191021593e+00 1 0 -4
2765 922 4 -8.1999999999999995e-01 3.2182326478105883e+00 5.8578567942408304e+00 6.2527922695439919e+00 -3 1 2
2771 924 4 -8.1999999999999995e-01 1.2661082838481892e+00 1.0074735768914007e+01 5.5209945952512181e+00 2 3 -3
1373 458 4 -8.1999999999999995e-01 1.5379799526068858e+00 1.1642884980930650e+00 6.0440271762358542e+00 -2 0 3
6759 2253 3 4.0999999999999998e-01 6.2024288722065428e+00 8.3985089443806160e+00 4.2533827378319478e-01 -1 3 0
3519 1173 3 4.0999999999999998e-01 7.1499140112981463e+00 3.7342880673377579e+00 6.3373120151968076e-01 0 0 5
4307 1436 4 -8.1999999999999995e-01 3.4443994541021045e-01 5.4362286709906771e+00 2.9542731014483206e+00 1 3 0
2329 777 3 4.0999999999999998e-01 2.5343504428110011e+00 9.8018978610069052e+00 6.8390888818609445e+00 -1 -1 -1
2107 703 3 4.0999999999999998e-01 1.0008883557355118e+01 6.9985634507724406e+00 2.0118346663541034e+00 -3 -1 -1
2134 712 3 4.0999999999999998e-01 3.5904985738823170e+00 9.7457819583092729e+00 9.5094034853992433e+00 1 4 1
4015 1339 3 4.0999999999999998e-01 2.2187432507192889e-01 5.0768657920131570e+00 8.1935981186936875e+00 -2 -1 -1
1016 339 4 -8.1999999999999995e-01 7.4823054120678467e+00 1.0075342198103275e+01 1.0185275270810278e+01 3 2 2
7128 2376 3 4.0999999999999998e-01 7.7633502921787345e+00 7.1632107333060882e+00 9.5225008711774635e+00 1 -1 3
2330 777 4 -8.1999999999999995e-01 2.9760346379141276e+00 9.6558116894735981e+00 7.7494001197864435e+00 -1 -1 -1
2871 957 3 4.0999999999999998e-01 8.8422560378791442e+00 3.3425149978456531e-01 6.7668302375173162e-01 1 3 1
2379 793 3 4.0999999999999998e-01 1.0132869672698481e+01 2.8549943255747672e+00 9.1517158278561599e+00 -6 -3 4
577 193 3 4.0999999999999998e-01 1.6827629148057979e-01 1.8868215668650354e+00 3.4539769989262257e+00 3 3 0
4308 1436 3 4.0999999999999998e-01 3.9707729523792124e-01 4.7226969016202762e+00 3.6733085266863372e+00 1 3 0
4899 1633 3 4.0999999999999998e-01 2.0895797224722287e-01 1.2708725936724332e+00 7.1650761388687769e+00 2 -2 2
2135 712 4 -8.1999999999999995e-01 3.7709408668848146e+00 9.6556394931727834e+00 1.0519790728401579e+01 1 4 1
3106 1036 3 4.0999999999999998e-01 8.9939549483685521e+00 1.2072302631164216e+00 1.0483374828505800e+01 0 3 0
1306 436 3 4.0999999999999998e-01 6.4626268940223142e+00 8.0964240573495072e-01 2.0130178068338198e-01 3 3 0
6975 2325 3 4.0999999999999998e-01 5.3372155015348506e+00 7.0498831935323807e+00 1.0872465688038334e+01 4 2 -1
5438 1813 4 -8.1999999999999995e-01 1.1968037543498524e+00 3.3595941127775366e+00 1.7774354212923647e+01 2 -4 2
6913 2305 3 4.0999999999999998e-01 3.3989526006698516e+00 2.6665492476177564e+00 1.5549686180468807e+01 -1 4 -1
6200 2067 4 -8.1999999999999995e-01 9.8693379874244656e+00 5.1454610769706690e+00 1.0691360726465119e+01 1 2 0
6201 2067 3 4.0999999999999998e-01 1.0459497882174404e+01 5.7374269735150270e+00 1.1248342814986344e+01 1 2 0
5530 1844 3 4.0999999999999998e-01 4.3128910393908937e+00 1.0231963073055477e+01 2.0787394211134114e+01 1 0 -2
3358 1120 3 4.0999999999999998e-01 5.8963217036242108e+00 4.9580965754288400e+00 1.5094467170828612e+01 -8 2 0
292 98 3 4.0999999999999998e-01 3.6798323274093372e+00 9.3907743160375166e+00 1.7510349147380424e+01 1 1 -2
6269 2090 4 -8.1999999999999995e-01 1.0005692555247066e+01 2.9852505799159363e+00 2.0687122957926899e+01 1 4 -2
1325 442 4 -8.1999999999999995e-01 7.5931109526359721e+00 3.3344601344449649e+00 1.9721435851258050e+01 2 -2 -4
3107 1036 4 -8.1999999999999995e-01 8.1181654522891264e+00 1.1783264342588897e+00 1.1045594590528491e+01 0 3 0
6915 2305 3 4.0999999999999998e-01 3.8718677429210184e+00 4.1614866022886492e+00 1.5704476801833417e+01 -1 4 -1
2850 950 3 4.0999999999999998e-01 6.7207205520822617e+00 3.8445184636001026e+00 1.1352897807349352e+01 -1 -1 -2
5769 1923 3 4.0999999999999998e-01 3.2139840587153321e+00 5.1487942723205826e+00 1.9224077355840063e+01 3 -2 -5
4940 1647 4 -8.1999999999999995e-01 6.6976395658368117e+00 1.5050176090794056e+00 1.7875797694639722e+01 1 4 -4
2849 950 4 -8.1999999999999995e-01 5.8252951274562426e+00 3.4072845326166092e+00 1.1069895223683258e+01 -1 -1 -2
5584 1862 3 4.0999999999999998e-01 3.3536376298089650e+00 2.6416168646732183e+00 1.3480916961897202e+01 5 -2 -1
5157 1719 3 4.0999999999999998e-01 1.2189299628462569e+00 5.9402887596749645e+00 1.1734820863403860e+01 -1 4 4
1267 423 3 4.0999999999999998e-01 3.3580506558672627e+00 5.2101921007230567e-01 1.5179587739165239e+01 4 3 4
3121 1041 3 4.0999999999999998e-01 6.7174032495721958e+00 1.2592750878527375e+00 1.2383846987707422e+01 -4 -1 1
3360 1120 3 4.0999999999999998e-01 7.3198066211010326e+00 5.5896277525275693e+00 1.5576235125276927e+01 -8 2 0
922 308 3 4.0999999999999998e-01 1.7161189535176444e+00 4.0436147047477293e+00 1.3327063079140851e+01 -1 3 -2
6973 2325 3 4.0999999999999998e-01 4.0777527400010767e+00 8.0754238892585199e+00 1.1257206303876067e+01 4 2 -1
3202 1068 3 4.0999999999999998e-01 4.0044036714578155e+00 6.2069630462108698e+00 1.4412980858737605e+01 0 3 1
5767 1923 3 4.0999999999999998e-01 2.1609476857569718e+00 6.5965934930908929e+00 1.9439113725476140e+01 3 -2 -5
764 255 4 -8.1999999999999995e-01 1.2635850159629054e+00 1.0062683235548766e+01 1.6250387613340660e+01 5 4 1
1017 339 3 4.0999999999999998e-01 7.2281916962412600e+00 1.0387088186118179e+01 1.1130353768647369e+01 3 2 2
2695 899 3 4.0999999999999998e-01 2.0446735999322989e+00 9.2535682185608277e+00 1.1391100080126767e+01 2 1 -1
2784 928 3 4.0999999999999998e-01 5.3879410183108218e+00 3.9266212785386636e+00 1.8938805539513609e+01 3 0 2
1324 442 3 4.0999999999999998e-01 7.4704236895495271e+00 2.5465975763669388e+00 1.9029145152163718e+01 2 -2 -4
366 122 3 4.0999999999999998e-01 3.8454074631022381e+00 7.4780165672769741e+00 1.3229653544855735e+01 -3 -1 1
4977 1659 3 4.0999999999999998e-01 3.4283921167920690e+00 1.6236034316741088e+00 2.0411217451531524e+01 -1 4 0
4976 1659 4 -8.1999999999999995e-01 3.4437290231102620e+00 2.4799809394825774e+00 2.0979694139769396e+01 -1 4 0
3203 1068 4 -8.1999999999999995e-01 4.1136524008154955e+00 5.1586490814884955e+00 1.4335653644209870e+01 0 3 1
4992 1664 3 4.0999999999999998e-01 8.5811684692543579e+00 2.9879160763587800e+00 1.2232790778341482e+01 -1 -3 0
4033 1345 3 4.0999999999999998e-01 7.7681150470396174e+00 7.7027871478570065e+00 1.6441603232952669e+01 -7 -3 -5
1581 527 3 4.0999999999999998e-01 2.7116483863897436e+00 4.4264060809535604e+00 1.1455498774667376e+01 -2 -4 3
3359 1120 4 -8.1999999999999995e-01 6.8876257401895948e+00 4.7213543524885271e+00 1.5241321656547013e+01 -8 2 0
365 122 4 -8.1999999999999995e-01 3.5710857118209161e+00 7.7178186812215221e+00 1.4195877581815443e+01 -3 -1 1
1409 470 4 -8.1999999999999995e-01 3.4167338702185903e+00 1.0415501108765698e+01 1.4041807493917679e+01 2 -3 2
1068 356 3 4.0999999999999998e-01 1.0399617277966289e+01 1.5894220025314469e+00 1.3161255496256409e+01 1 -1 0
4843 1615 3 4.0999999999999998e-01 9.9498399948701994e+00 9.1847584458738254e+00 1.2061183633807421e+01 4 -1 1
5607 1869 3 4.0999999999999998e-01 1.1018654015154616e+00 8.5967231990894408e+00 1.5877588659727657e+01 0 2 3
6914 2305 4 -8.1999999999999995e-01 3.4926835675837951e+00 3.3876661701354407e+00 1.6254066932864244e+01 -1 4 -1
3842 1281 4 -8.1999999999999995e-01 7.5064701865407839e+00 1.8681635452269620e+00 1.5262444457012819e+01 1 -1 -2
3363 1121 3 4.0999999999999998e-01 1.0459561823792797e+01 4.5888487120101900e+00 1.4920464035028218e+01 -1 -1 -1
5437 1813 3 4.0999999999999998e-01 1.9349709244764011e+00 3.4301478748417251e+00 1.7013575605830358e+01 2 -4 2
3122 1041 4 -8.1999999999999995e-01 6.1551682391363727e+00 8.5436040611388242e-01 1.3118977085770856e+01 -4 -1 1
2782 928 3 4.0999999999999998e-01 4.1707370741753635e+00 3.7157403473787354e+00 1.7787098564283319e+01 3 0 2
425 142 4 -8.1999999999999995e-01 7.3908322904981594e+00 6.2113011210651203e+00 1.9977442123910976e+01 3 -5 -1
4975 1659 3 4.0999999999999998e-01 3.6780452753789872e+00 3.2867128426807954e+00 2.0375385349071866e+01 -1 4 0
2464 822 3 4.0999999999999998e-01 5.9202546966017389e+00 7.0502427174943474e+00 2.0616812574366076e+01 1 5 -2
294 98 3 4.0999999999999998e-01 4.6826844599606305e+00 8.3970504144128117e+00 1.8502562982749829e+01 1 1 -2
2601 867 3 4.0999999999999998e-01 7.0802973121079171e+00 9.1101586395347613e+00 1.3187517974308960e+01 4 1 2
2577 859 3 4.0999999999999998e-01 7.7181257693227279e+00 7.5404996544890439e+00 1.8519489614707918e+01 -3 4 -1
6704 2235 4 -8.1999999999999995e-01 1.2105705962932043e+00 8.3540810968711305e+00 1.9312579558960540e+01 -3 -3 0
924 308 3 4.0999999999999998e-01 3.8865897088335838e-01 5.0643900292543282e+00 1.3398672985959632e+01 -1 3 -2
1067 356 4 -8.1999999999999995e-01 1.0552007000696911e+01 2.1779637763187840e+00 1.2312961241463956e+01 1 -1 0
2696 899 4 -8.1999999999999995e-01 1.0441417677528197e+00 9.5371307277311868e+00 1.1371243751602456e+01 2 1 -1
6751 2251 3 4.0999999999999998e-01 1.0188901499770463e+01 6.5627024597566486e+00 1.3551176026097396e+01 2 0 2
1326 442 3 4.0999999999999998e-01 8.5426992260541379e+00 3.1091552644746985e+00 2.0120163109336971e+01 2 -2 -4
2517 839 3 4.0999999999999998e-01 9.5644233204563545e+00 7.2149941977292542e+00 1.6553128818718314e+01 0 0 2
1579 527 3 4.0999999999999998e-01 4.3737221322464768e+00 3.8594285771602834e+00 1.1639886857485559e+01 -2 -4 3
2599 867 3 4.0999999999999998e-01 6.2351304773110252e+00 7.7332484405086817e+00 1.2705403073634873e+01 4 1 2
5439 1813 3 4.0999999999999998e-01 1.5997780938501569e+00 4.0253390341244737e+00 1.8487073240091842e+01 2 -4 2
6199 2067 3 4.0999999999999998e-01 9.0263724934572664e+00 4.8275064608614322e+00 1.1193485401658792e+01 1 2 0
2600 867 4 -8.1999999999999995e-01 7.0748485967934238e+00 8.0759499090481377e+00 1.3161996405793090e+01 4 1 2
5747 1916 4 -8.1999999999999995e-01 1.0173847806429407e+01 9.0089296498376648e-01 1.4786768803966437e+01 0 2 2
4034 1345 4 -8.1999999999999995e-01 7.7977023202151852e+00 7.0883845777799221e+00 1.5627123673268034e+01 -7 -3 -5
3038 1013 4 -8.1999999999999995e-01 3.9573527656861407e-01 6.9143105462844199e+00 1.2797214069756222e+01 5 4 -2
4941 1647 3 4.0999999999999998e-01 7.1760233345473274e+00 1.6635055279677089e+00 1.6981529350609517e+01 1 4 -4
6752 2251 4 -8.1999999999999995e-01 9.9099503143023675e+00 7.4249649300422815e+00 1.3068541842414598e+01 2 0 2
5313 1771 3 4.0999999999999998e-01 9.5624460893062881e+00 1.0089678216021463e+01 1.9905875945787106e+01 4 5 1
3204 1068 3 4.0999999999999998e-01 4.2049863628632309e+00 4.7874710166371042e+00 1.3374281511595829e+01 0 3 1
293 98 4 -8.1999999999999995e-01 3.6960193936667967e+00 8.5603977061068530e+00 1.8115178144219716e+01 1 1 -2
1580 527 4 -8.1999999999999995e-01 3.3931229262089748e+00 3.8436991576917441e+00 1.2045847485926387e+01 -2 -4 3
426 142 3 4.0999999999999998e-01 7.2932074999596512e+00 5.2069084286844571e+00 1.9820863176216321e+01 3 -5 -1
5605 1869 3 4.0999999999999998e-01 1.8472055582282996e+00 7.4618893072380441e+00 1.5048433630601389e+01 0 2 3
6974 2325 4 -8.1999999999999995e-01 4.5487212895034146e+00 7.1890614587607917e+00 1.1536421842210029e+01 4 2 -1
2783 928 4 -8.1999999999999995e-01 4.4145839215839109e+00 4.0274827434105891e+00 1.8748555319508323e+01 3 0 2
3039 1013 3 4.0999999999999998e-01 1.6045184592389375e-01 7.7049966311484850e+00 1.2219892361412866e+01 5 4 -2
5683 1895 3 4.0999999999999998e-01 6.6901415434197808e+00 9.8033283108299756e+00 1.7427273572288396e+01 -3 -1 4
923 308 4 -8.1999999999999995e-01 7.8297354291861854e-01 4.1310155836429763e+00 1.3719206804440940e+01 -1 3 -2
3495 1165 3 4.0999999999999998e-01 1.0381172029895859e+01 6.3828280434043085e+00 2.0418089497792309e+01 -1 -1 -3
3744 1248 3 4.0999999999999998e-01 2.7965160830931999e+00 8.6776749877062365e-01 1.0760209526572201e+01 -1 4 -2
4035 1345 3 4.0999999999999998e-01 7.4506967428770592e+00 7.4631922595393743e+00 1.4764898679419085e+01 -7 -3 -5
2575 859 3 4.0999999999999998e-01 8.7297908167436162e+00 8.8504925676244284e+00 1.8533032719079294e+01 -3 4 -1
5156 1719 4 -8.1999999999999995e-01 1.7300027881841435e+00 5.4310623251813617e+00 1.0976965913605619e+01 -1 4 4
6703 2235 3 4.0999999999999998e-01 2.1528025500033858e+00 8.4463088761096348e+00 1.8909593599463509e+01 -3 -3 0
2576 859 4 -8.1999999999999995e-01 7.8934231409283901e+00 8.4789283251937118e+00 1.8121421051910556e+01 -3 4 -1
4990 1664 3 4.0999999999999998e-01 8.0966582839040040e+00 4.1910943421840132e+00 1.3196843543430171e+01 -1 -3 0
4845 1615 3 4.0999999999999998e-01 9.1527604764630581e+00 1.0524254791444591e+01 1.1510885218089934e+01 4 -1 1
5748 1916 3 4.0999999999999998e-01 9.2935112728682441e+00 1.3683645964130469e+00 1.5051292679386158e+01 0 2 2
6705 2235 3 4.0999999999999998e-01 1.2791901374539236e+00 9.0742557222993376e+00 2.0050066492160195e+01 -3 -3 0
5586 1862 3 4.0999999999999998e-01 4.6140406301074055e+00 1.4685233009680914e+00 1.3701969741578338e+01 5 -2 -1
4939 1647 3 4.0999999999999998e-01 5.8316782939483138e+00 9.5271712379520834e-01 1.7781975120055421e+01 1 4 -4
4991 1664 4 -8.1999999999999995e-01 8.1213212291094177e+00 3.8758271443661418e+00 1.2208433141944347e+01 -1 -3 0
364 122 3 4.0999999999999998e-01 3.5536214241195490e+00 8.7811808039774597e+00 1.4323327088155271e+01 -3 -1 1
5768 1923 4 -8.1999999999999995e-01 2.3356435893906160e+00 5.5539286564424808e+00 1.9632091667364733e+01 3 -2 -5
5312 1771 4 -8.1999999999999995e-01 1.0258105155259754e+01 9.5567626985678054e+00 1.9349374289865167e+01 4 5 1
3841 1281 3 4.0999999999999998e-01 7.5349140277489406e+00 2.9336682742280562e+00 1.5161945078257775e+01 1 -1 -2
3742 1248 3 4.0999999999999998e-01 2.5652881002574217e+00 1.8487726781010201e+00 1.2022261581372426e+01 -1 4 -2
5585 1862 4 -8.1999999999999995e-01 3.6862025166531018e+00 1.8285316466621448e+00 1.3996426930387992e+01 5 -2 -1
3743 1248 4 -8.1999999999999995e-01 2.1376523971803154e+00 1.0743048050919966e+00 1.1519639670271722e+01 -1 4 -2
3843 1281 3 4.0999999999999998e-01 6.8118315928256159e+00 1.5302455261444350e+00 1.4624328645583743e+01 1 -1 -2
4844 1615 4 -8.1999999999999995e-01 1.0069207609108659e+01 1.0028489244103257e+01 1.1535756169625031e+01 4 -1 1
424 142 3 4.0999999999999998e-01 8.0868411755399610e+00 6.4580653167076454e+00 2.0718995855561289e+01 3 -5 -1
5606 1869 4 -8.1999999999999995e-01 8.8867908338316248e-01 7.7246980778569911e+00 1.5297244843845025e+01 0 2 3
3037 1013 3 4.0999999999999998e-01 4.4273060976746859e-01 7.3046506188839189e+00 1.3786963722635075e+01 5 4 -2
6753 2251 3 4.0999999999999998e-01 8.9374992653795768e+00 7.4763928048672961e+00 1.3064623916981988e+01 2 0 2
763 255 3 4.0999999999999998e-01 2.1899067681531381e+00 1.0393555171616292e+01 1.6485598727193025e+01 5 4 1
3000 1000 3 4.0999999999999998e-01 8.5111971791353636e+00 7.5732929888139733e-01 2.0781420799335141e+01 1 4 -2
3108 1036 3 4.0999999999999998e-01 7.5990774214515939e+00 3.4968312157278997e-01 1.0700110872142323e+01 0 3 0
7252 2418 3 4.0999999999999998e-01 1.5826709623850377e-01 1.7487596017998348e+00 1.7216605822894778e+01 -1 1 -2
2136 712 3 4.0999999999999998e-01 4.1138583280108900e+00 1.0498398195023636e+01 1.0951533002788807e+01 1 4 1
4458 1486 3 4.0999999999999998e-01 2.8611336561416949e+00 8.6484938594792435e+00 2.7738564632795448e+01 6 7 -4
1218 406 3 4.0999999999999998e-01 8.8822048189410463e+00 8.2261765447845576e+00 2.4118840531644310e+01 3 -3 5
5276 1759 4 -8.1999999999999995e-01 2.1386373973185040e+00 1.0395471413962680e+00 2.6631931485849758e+01 -6 -3 0
6953 2318 4 -8.1999999999999995e-01 4.1881719183906494e+00 6.6816964850200309e+00 2.5080431510846029e+01 1 -1 -2
1261 421 3 4.0999999999999998e-01 8.7212518936442738e+00 6.2751424776190068e-01 2.9826961320656803e+01 -1 1 -1
3586 1196 3 4.0999999999999998e-01 7.7223499792757062e+00 4.0716516441539135e+00 2.8177298475507150e+01 0 -2 2
3615 1205 3 4.0999999999999998e-01 4.8192682498172568e-01 8.3848825173203867e+00 3.0855946007952383e+01 4 -1 0
5742 1914 3 4.0999999999999998e-01 6.6992023570498178e+00 5.3514463912427566e+00 2.6975870161282199e+01 0 3 -4
3588 1196 3 4.0999999999999998e-01 8.7972233105208986e+00 3.0998866056849104e+00 2.7277325662019539e+01 0 -2 2
6726 2242 3 4.0999999999999998e-01 9.6756426804332225e+00 4.2525305007166363e+00 2.5528919336123867e+01 0 1 -2
5674 1892 3 4.0999999999999998e-01 5.3972358757821928e+00 7.4682708220334586e+00 3.0405684936668543e+01 -3 2 2
2723 908 4 -8.1999999999999995e-01 1.1944498552447447e+00 5.4348121864158161e+00 2.6670197634755315e+01 -6 2 0
5424 1808 3 4.0999999999999998e-01 3.1459088497675083e+00 2.0078031603414592e+00 2.9204498582444490e+01 -2 -5 -1
3185 1062 4 -8.1999999999999995e-01 2.3739460591577561e+00 4.9821189714125262e+00 2.4027981819607749e+01 -2 -1 3
1283 428 4 -8.1999999999999995e-01 1.1331785101584244e+00 9.6924015331703774e+00 2.2245917872217827e+01 0 3 -1
1217 406 4 -8.1999999999999995e-01 9.6118911876125459e+00 7.5832193976636253e+00 2.3942104382012818e+01 3 -3 5
6622 2208 3 4.0999999999999998e-01 5.9383459760255572e+00 6.3621053041926681e+00 2.4996002568646599e+01 -5 -3 1
2724 908 3 4.0999999999999998e-01 1.5856918240320037e+00 5.3922170406252077e+00 2.5684839965483320e+01 -6 2 0
5743 1915 3 4.0999999999999998e-01 8.4303684032107498e+00 7.6127866411023266e+00 2.8167254763328323e+01 4 2 1
3479 1160 4 -8.1999999999999995e-01 7.1008526324681753e+00 9.0946425363022527e+00 2.3980432758055791e+01 1 -1 2
3198 1066 3 4.0999999999999998e-01 1.9396698108392798e+00 2.4901836035167708e+00 2.1755242638633725e+01 -2 0 -5
2722 908 3 4.0999999999999998e-01 1.9806864088664219e-01 5.2405103009699534e+00 2.6715579688718964e+01 -6 2 0
1363 455 3 4.0999999999999998e-01 6.8389215350248944e-01 7.1068084510112426e+00 2.7350869004737703e+01 -2 2 0
4207 1403 3 4.0999999999999998e-01 4.0282940307118942e+00 3.6775634126834187e+00 3.0671026368377291e+01 2 2 -1
6952 2318 3 4.0999999999999998e-01 3.9737102544407499e+00 7.6271015166560501e+00 2.4813253983049808e+01 1 -1 -2
3196 1066 3 4.0999999999999998e-01 5.2188940387597460e-01 3.3555290156652613e+00 2.2189056092310789e+01 -2 0 -5
3184 1062 3 4.0999999999999998e-01 1.6935116665749590e+00 4.9965272079228686e+00 2.3295344226432093e+01 -2 -1 3
1364 455 4 -8.1999999999999995e-01 8.6157740093101531e-01 8.0875510836400117e+00 2.7371703984525794e+01 -2 2 0
7195 2399 3 4.0999999999999998e-01 1.5960823488075293e-01 6.0477899045284058e+00 2.2322913925721465e+01 0 -2 3
5675 1892 4 -8.1999999999999995e-01 5.2326118677122269e+00 6.6923845840615561e+00 3.1041759221999783e+01 -3 2 2
1282 428 3 4.0999999999999998e-01 2.0595338717170928e+00 9.8380099451946705e+00 2.1813671013382429e+01 0 3 -1
1667 556 4 -8.1999999999999995e-01 8.7356051635344070e+00 2.3993175537500666e+00 2.5786641231557269e+01 1 1 2
3474 1158 3 4.0999999999999998e-01 6.7702928249364813e+00 2.4927181471351538e+00 3.0755974815669575e+01 -1 0 -2
6684 2228 3 4.0999999999999998e-01 9.3445879994183283e+00 6.1886759725685074e+00 3.0919831593719454e+01 3 0 -3
4456 1486 3 4.0999999999999998e-01 3.9423402021366099e+00 9.8189651147330572e+00 2.7278281042000973e+01 6 7 -4
4132 1378 3 4.0999999999999998e-01 3.8649003025550486e+00 6.0469957168612520e+00 2.6668812116287466e+01 3 -1 -2
6080 2027 4 -8.1999999999999995e-01 1.0453851654167991e+01 1.0090519669736667e+01 2.7168671954258219e+01 0 0 2