LAMMPS data file via write_data, version 5 Jun 2019, timestep = 4000000

7349 atoms
5 atom types
4899 bonds
2 bond types
2451 angles
2 angle types
1 impropers
1 improper types

1.5519297081455363e-01 4.1845807029189409e+01 xlo xhi
1.5469297081455124e-01 4.1845307029189406e+01 ylo yhi
1.5469297081455124e-01 4.1845307029189406e+01 zlo zhi

#Masses
#
#1 12.01
#2 40.08
#3 1.01
#4 16
#5 16
#
#Bond Coeffs # harmonic
#
#1 20.4246 1.3042
#2 22.965 1.012

Atoms # full

6021 2007 3 4.0999999999999998e-01 1.0292481633281620e+01 9.9729890411456612e+00 1.1930849276705191e+00 0 0 1
6206 2069 4 -8.1999999999999995e-01 1.0100245436328894e+01 2.2071784991870276e+00 8.3210511537410436e+00 -3 1 -1
7314 2438 3 4.0999999999999998e-01 3.4942007811274225e+00 6.6330163556940995e+00 8.0950048393339351e+00 0 -1 1
4724 1575 4 -8.1999999999999995e-01 7.2829232442939382e+00 9.8871339047297599e+00 4.2417713884258408e+00 2 0 0
4753 1585 3 4.0999999999999998e-01 4.7994286472539793e-01 9.6752598483089560e+00 4.2922969925888008e+00 0 1 0
7312 2438 3 4.0999999999999998e-01 4.5709376535723063e+00 6.8204557922836146e+00 6.6876925284350381e+00 0 -1 1
3261 1087 3 4.0999999999999998e-01 4.6782390871123010e+00 1.2663834500476001e+00 7.2562158185440655e+00 1 1 3
568 190 3 4.0999999999999998e-01 5.0403663202390083e+00 8.5708077099564228e+00 4.2903968509966175e+00 -2 -2 0
4946 1649 4 -8.1999999999999995e-01 2.8273842740210715e+00 8.8575163042816900e+00 1.7986520167426319e+00 0 2 2
6925 2309 3 4.0999999999999998e-01 1.4158083461969704e+00 1.5391484358524514e+00 7.1108075955115311e+00 1 2 1
3879 1293 3 4.0999999999999998e-01 5.7905981648985669e+00 7.3971474605502496e-01 5.5635032561329263e+00 -1 2 1
7309 2437 3 4.0999999999999998e-01 1.4848540172515758e+00 3.0704248413009800e+00 8.9301244129975199e+00 2 1 1
4177 1393 3 4.0999999999999998e-01 9.6311783356399072e+00 6.3554722267925667e-01 4.8477222607040105e+00 -1 -2 2
6865 2289 3 4.0999999999999998e-01 2.0417408074006618e+00 6.0158706680437035e+00 4.7615809583046937e+00 -1 0 1
7093 2365 3 4.0999999999999998e-01 6.4769188582617447e+00 7.3576947016197050e+00 5.9646696198865357e+00 1 0 0
3878 1293 4 -8.1999999999999995e-01 6.4974526903681147e+00 1.0583218682095641e+00 4.8498300060127955e+00 -1 2 1
344 115 4 -8.1999999999999995e-01 8.8947019028229359e+00 6.0943749501343856e+00 6.8488124702241651e+00 -1 2 0
3244 1082 3 4.0999999999999998e-01 8.7739004260124032e-01 7.6759924167326128e+00 5.7729851434055162e+00 1 0 0
2789 930 4 -8.1999999999999995e-01 8.7298894986622724e+00 4.5152431888463509e+00 8.9140841707668681e+00 1 0 2
2598 866 3 4.0999999999999998e-01 2.0397001282241680e+00 1.0297876602393309e+01 8.0474596673199965e+00 1 0 0
2788 930 3 4.0999999999999998e-01 7.7745367722704728e+00 4.1401154445405908e+00 8.9545846182538451e+00 1 0 2
343 115 3 4.0999999999999998e-01 8.6406260106162680e+00 5.4801691187314150e+00 7.6499919618916152e+00 -1 2 0
5252 1751 4 -8.1999999999999995e-01 6.5128230655573818e+00 2.1980695975979683e+00 2.4352921350933605e+00 2 -1 0
4945 1649 3 4.0999999999999998e-01 3.3047982451839855e+00 9.2189136936061349e+00 2.6054219122453937e+00 0 2 2
1936 646 3 4.0999999999999998e-01 5.6604644789454426e+00 3.1098692116191065e+00 8.5369653764212963e+00 0 -1 1
7310 2437 4 -8.1999999999999995e-01 1.6406934450411053e+00 3.5859504849885142e+00 9.7853721571542280e+00 2 1 1
6896 2299 4 -8.1999999999999995e-01 6.3541364065987060e-01 1.5021120426714316e+00 4.3023017399237595e+00 1 -2 0
6926 2309 4 -8.1999999999999995e-01 1.1406429865147483e+00 2.5434458610923665e+00 7.1319621732488940e+00 1 2 1
2102 701 4 -8.1999999999999995e-01 1.0545863691931674e+01 7.9755300395835782e+00 7.7524830292419304e+00 1 1 -1
3245 1082 4 -8.1999999999999995e-01 6.2347181420169706e-01 8.6977648785386474e+00 5.6636003899954055e+00 1 0 0
2790 930 3 4.0999999999999998e-01 9.1279350727625825e+00 4.2610448068521913e+00 9.8197573659053283e+00 1 0 2
7033 2345 3 4.0999999999999998e-01 5.2092351922659441e-01 9.2390805255970267e+00 9.7137250730232676e+00 -1 2 -1
2940 980 3 4.0999999999999998e-01 5.6596321075043674e+00 8.7930608331259954e+00 7.1064427073936596e+00 1 -2 1
2938 980 3 4.0999999999999998e-01 4.1593217197517829e+00 9.5656819111814020e+00 7.2400322069019154e+00 1 -2 1
569 190 4 -8.1999999999999995e-01 4.0849520529343932e+00 9.1047847609235539e+00 4.3414835018814264e+00 -2 -2 0
4947 1649 3 4.0999999999999998e-01 2.5198146647385817e+00 9.6658718141205373e+00 1.2394905480433371e+00 0 2 2
7095 2365 3 4.0999999999999998e-01 7.2082786250546169e+00 6.8392713376638223e+00 7.3845244698550090e+00 1 0 0
2939 980 4 -8.1999999999999995e-01 5.1441537622469937e+00 9.6799411319909314e+00 7.1671197059526133e+00 1 -2 1
6205 2069 3 4.0999999999999998e-01 9.2871584075907645e+00 2.7514187959832372e+00 8.4795784004163028e+00 -3 1 -1
5169 1723 3 4.0999999999999998e-01 7.5326872683896191e+00 3.9982543911578228e+00 2.9928158587612561e+00 3 -1 1
3267 1089 3 4.0999999999999998e-01 4.1988748084138372e+00 4.7924227418197107e+00 4.5815703146489462e+00 1 1 -1
6544 2182 3 4.0999999999999998e-01 6.7467828652170487e+00 6.5372824710048585e+00 3.7273659538778707e+00 -2 1 2
2780 927 4 -8.1999999999999995e-01 1.0501956129783688e+01 6.5440254086011889e+00 4.5031453342004584e+00 -1 1 -1
4178 1393 4 -8.1999999999999995e-01 9.1471059896892495e+00 5.3211549641657985e-01 5.6974871201102175e+00 -1 -2 2
5682 1894 3 4.0999999999999998e-01 4.4654034582771622e+00 3.0939807672621580e+00 6.3535850509298877e+00 0 -1 1
5534 1845 4 -8.1999999999999995e-01 2.6433992199989227e+00 6.1715565622402844e+00 9.4657319753678753e+00 1 1 0
4755 1585 3 4.0999999999999998e-01 9.8832337497848666e-01 1.0087206629553718e+01 2.6880391227322891e+00 0 1 0
7311 2437 3 4.0999999999999998e-01 7.0419679999988449e-01 3.6028563883732967e+00 1.0289244140880658e+01 2 1 1
6867 2289 3 4.0999999999999998e-01 2.3235222369709039e+00 6.1311466160360224e+00 6.3911417573277989e+00 -1 0 1
1937 646 4 -8.1999999999999995e-01 5.9920185030244886e+00 3.5791466443400948e+00 9.4068786021694208e+00 0 -1 1
5167 1723 3 4.0999999999999998e-01 8.1524795319449872e+00 5.5062493305180800e+00 2.4641459132393133e+00 3 -1 1
2808 936 3 4.0999999999999998e-01 4.2236228668936375e+00 6.1022828968790126e+00 1.0267821159466811e+01 3 0 1
3980 1327 4 -8.1999999999999995e-01 9.6117907026824021e+00 6.4294600987819095e+00 1.9338248793204535e+00 0 2 1
6546 2182 3 4.0999999999999998e-01 7.0634226451763720e+00 8.0614033094342918e+00 4.1930183592869730e+00 -2 1 2
219 73 3 4.0999999999999998e-01 8.3418892460379634e+00 7.6005170994995863e+00 1.1949040605106749e+00 0 -1 1
1253 418 4 -8.1999999999999995e-01 2.1785716694254029e+00 4.1020024642257527e+00 1.1138134468637668e+00 2 0 2
1855 619 3 4.0999999999999998e-01 1.0043642019082155e+01 2.0011497479276907e+00 1.0045436667947991e+00 1 2 0
5056 1686 3 4.0999999999999998e-01 3.5257148901236959e+00 7.2103956805553020e+00 3.9117909523086682e+00 0 0 -1
6522 2174 3 4.0999999999999998e-01 2.1197678634416266e+00 3.9251760926057833e-01 1.8188793451353760e+00 0 -1 0
1938 646 3 4.0999999999999998e-01 5.5105782140553057e+00 4.4494076137045129e+00 9.5507334150712282e+00 0 -1 1
3324 1108 3 4.0999999999999998e-01 6.7869784136188764e+00 9.2649330858967378e+00 1.0110275093643528e+01 1 0 1
5251 1751 3 4.0999999999999998e-01 6.5175741418774074e+00 1.7293432062738650e+00 3.3544195376912596e+00 2 -1 0
5058 1686 3 4.0999999999999998e-01 3.8322908308798000e+00 6.2752005205323584e+00 2.5309698245696737e+00 0 0 -1
2965 989 3 4.0999999999999998e-01 3.9218120520899982e+00 2.8276789010907724e+00 3.9083533261631023e+00 3 0 1
5680 1894 3 4.0999999999999998e-01 3.0540108056780690e+00 2.9640456012877374e+00 7.3129666689341954e+00 0 -1 1
2967 989 3 4.0999999999999998e-01 3.4629213328077944e+00 3.2469106991778118e+00 2.3474661690098690e+00 3 0 1
2779 927 3 4.0999999999999998e-01 9.7371535348516325e+00 6.4047040587749953e+00 5.2284572009167363e+00 -1 1 -1
3266 1089 4 -8.1999999999999995e-01 4.6423592878444531e+00 4.0696720940121764e+00 5.1934454910199976e+00 1 1 -1
3877 1293 3 4.0999999999999998e-01 7.4001149301379492e+00 8.3503450873590679e-01 5.3273207929672317e+00 -1 2 1
1252 418 3 4.0999999999999998e-01 1.4716378650534758e+00 4.1187780524676043e+00 1.7849354752668289e+00 2 0 2
3260 1087 4 -8.1999999999999995e-01 5.0095660886259230e+00 3.1462011409328594e-01 6.9210743227237863e+00 1 1 3
5253 1751 3 4.0999999999999998e-01 5.5369524392367762e+00 2.3430163583927510e+00 2.2772455719898184e+00 2 -1 0
547 183 3 4.0999999999999998e-01 4.9723540681473031e+00 1.0435455377414687e+01 1.2833512159975249e+00 -2 -2 1
6545 2182 4 -8.1999999999999995e-01 6.3888073507018515e+00 7.2966755014894584e+00 4.2676088829658312e+00 -2 1 2
3979 1327 3 4.0999999999999998e-01 9.8671016594615111e+00 6.5766677987812043e+00 2.9294102506046440e+00 0 2 1
2596 866 3 4.0999999999999998e-01 1.8504110308640831e+00 9.7130609084423281e+00 6.4885936375160504e+00 1 0 0
6866 2289 4 -8.1999999999999995e-01 1.5606325044926235e+00 5.9929076003184329e+00 5.6938281736078693e+00 -1 0 1
2597 866 4 -8.1999999999999995e-01 2.4441334498675258e+00 1.0311655909274744e+01 7.0857920621892738e+00 1 0 0
6927 2309 3 4.0999999999999998e-01 4.6656782994737461e-01 2.7794228925026214e+00 6.4149297159759424e+00 1 2 1
6895 2299 3 4.0999999999999998e-01 1.6379390171313819e+00 1.3542277697280682e+00 4.4251240344503637e+00 1 -2 0
2966 989 4 -8.1999999999999995e-01 3.9074799149333272e+00 2.4973223921240053e+00 2.9556518524976774e+00 3 0 1
5554 1852 3 4.0999999999999998e-01 9.4733155336713235e+00 9.0712421290170013e+00 6.8234866369755078e+00 1 -1 -1
3010 1004 3 4.0999999999999998e-01 5.0810966127322499e-01 3.1368423588910690e+00 3.2215953120183269e+00 1 0 3
7313 2438 4 -8.1999999999999995e-01 3.5778970512135548e+00 6.7355493805615412e+00 7.0641857095544607e+00 0 -1 1
5681 1894 4 -8.1999999999999995e-01 4.0628881218756874e+00 2.7366406831812475e+00 7.2748714786999376e+00 0 -1 1
76 26 3 4.0999999999999998e-01 7.6008892485087092e+00 2.2228431065630088e+00 1.0354316003176720e+00 -1 3 -1
1254 418 3 4.0999999999999998e-01 2.5182763373040582e+00 5.0656784685729459e+00 9.6179331270002444e-01 2 0 2
345 115 3 4.0999999999999998e-01 9.3998563603203582e+00 6.9134129517004208e+00 7.1836040741400442e+00 -1 2 0
835 279 3 4.0999999999999998e-01 2.8791481141928554e+00 7.2251963280502638e+00 1.0476410427633525e+00 1 1 0
6897 2299 3 4.0999999999999998e-01 1.7235680510118812e-01 6.6487511429963975e-01 4.7163782787834592e+00 1 -2 0
7094 2365 4 -8.1999999999999995e-01 6.3504475864244485e+00 7.2948540082909714e+00 6.9754935372315048e+00 1 0 0
4725 1575 3 4.0999999999999998e-01 7.9624790199924922e+00 9.6275741160979322e+00 5.0288953020857754e+00 2 0 0
5168 1723 4 -8.1999999999999995e-01 7.5006505249091138e+00 5.0183523025301193e+00 3.0523296583916033e+00 3 -1 1
3265 1089 3 4.0999999999999998e-01 5.6129389221312982e+00 4.2632706518725838e+00 5.0963245545939637e+00 1 1 -1
5057 1686 4 -8.1999999999999995e-01 3.6762052168814643e+00 6.2342802327790929e+00 3.5622473849675558e+00 0 0 -1
5535 1845 3 4.0999999999999998e-01 2.1750347872864348e+00 5.2540426163218141e+00 9.3832639337104613e+00 1 1 0
6355 2119 3 4.0999999999999998e-01 1.0314961114635498e+01 3.1096479151875793e+00 4.1516593743037680e+00 -1 1 0
3809 1270 4 -8.1999999999999995e-01 4.5022674782247296e-01 4.3554792780084312e-01 1.0812299205267129e+00 0 0 0
3323 1108 4 -8.1999999999999995e-01 6.9033959834582692e+00 8.3280736700738096e+00 1.0400180389732039e+01 1 0 1
6520 2174 3 4.0999999999999998e-01 3.4634417141226237e+00 1.1705761263304353e+00 2.5454105010603714e+00 0 -1 0
7034 2345 4 -8.1999999999999995e-01 7.9261271324190552e-01 1.0061610162114807e+01 9.1670964471500564e+00 -1 2 -1
5533 1845 3 4.0999999999999998e-01 1.9110916974197039e+00 6.7278371911272723e+00 9.9339852571135907e+00 1 1 0
570 190 3 4.0999999999999998e-01 4.3020493957430803e+00 1.0031146395322718e+01 4.6350566159558308e+00 -2 -2 0
3270 1090 3 4.0999999999999998e-01 1.0503361324829365e+01 9.4615118593846201e+00 5.1186151090572922e+00 3 0 0
3981 1327 3 4.0999999999999998e-01 1.0505134006653716e+01 6.0830186315582297e+00 1.5299220043830641e+00 0 2 1
4179 1393 3 4.0999999999999998e-01 9.7948879066638970e+00 9.1144460375270975e-01 6.4365483822565759e+00 -1 -2 2
836 279 4 -8.1999999999999995e-01 3.3108074585449883e+00 6.4875990553094161e+00 4.4650698537102956e-01 1 1 0
4330 1444 3 4.0999999999999998e-01 5.5032912317480842e-01 7.8770951502028392e+00 3.3971131265635984e-01 0 0 0
5555 1852 4 -8.1999999999999995e-01 9.3719819217987865e+00 9.8835056279173497e+00 6.1608117282383352e+00 1 -1 -1
4754 1585 4 -8.1999999999999995e-01 2.2218811051413839e-01 9.9619355767275870e+00 3.3193086399611373e+00 0 1 0
77 26 4 -8.1999999999999995e-01 8.3401322073747526e+00 2.4022250340982727e+00 3.6109500850550919e-01 -1 3 -1
218 73 4 -8.1999999999999995e-01 7.9795294072236347e+00 8.2635291587488773e+00 4.7982973644231425e-01 0 -1 1
3322 1108 3 4.0999999999999998e-01 6.1665544954024654e+00 7.6651378090964233e+00 1.0129872963061366e+01 1 0 1
4332 1444 3 4.0999999999999998e-01 4.3490309329487331e-01 9.5690404648365721e+00 3.4066247050700443e-01 0 0 0
2807 936 4 -8.1999999999999995e-01 5.2156124425137582e+00 6.1508952801464449e+00 1.0466722802478332e+01 3 0 1
6521 2174 4 -8.1999999999999995e-01 3.1256395076846561e+00 2.4118739846655757e-01 2.0851767244979742e+00 0 -1 0
544 182 3 4.0999999999999998e-01 4.7467227842454784e+00 8.1848005811575621e+00 2.1364425358948580e-01 2 0 2
546 182 3 4.0999999999999998e-01 6.2993022929813609e+00 8.5999102170916135e+00 2.3156242363046431e-01 2 0 2
6898 2300 3 4.0999999999999998e-01 1.8701321594019624e+00 2.2074597193470669e+00 1.0644939121635177e+01 0 1 1
7272 2424 3 4.0999999999999998e-01 3.9538531777852368e+00 1.0202429612025219e+00 1.3797823706069895e+01 1 1 0
708 236 3 4.0999999999999998e-01 6.0392871144659486e+00 8.1290833234832558e+00 1.9499600074614833e+01 1 1 1
3907 1303 3 4.0999999999999998e-01 2.5051060287243585e+00 5.2804414523159462e+00 1.8781333919597387e+01 0 1 -1
3232 1078 3 4.0999999999999998e-01 4.9642151367498180e+00 8.0189817958321594e+00 1.5631775156989155e+01 2 -1 2
4614 1538 3 4.0999999999999998e-01 1.0170396081330972e+01 5.0414219770638704e+00 1.1387861963194919e+01 1 1 2
397 133 3 4.0999999999999998e-01 8.4452917297394847e-01 5.2432780217093877e-01 1.6071508211367274e+01 -1 1 -1
6124 2042 3 4.0999999999999998e-01 2.8273784875805941e+00 1.0146719783231584e+01 1.4781578624087592e+01 -1 -1 2
3080 1027 4 -8.1999999999999995e-01 5.4517363269648067e+00 9.2595694303775422e-01 1.5111664243591559e+01 0 0 0
6486 2162 3 4.0999999999999998e-01 9.3153015957581662e+00 8.5093007644463938e+00 1.4234440256279582e+01 -1 0 2
3233 1078 4 -8.1999999999999995e-01 4.7639674094150974e+00 8.3540691922200292e+00 1.6571048607578380e+01 2 -1 2
5578 1860 3 4.0999999999999998e-01 1.0480791159444307e+01 6.9442122803066617e+00 1.5159458263784527e+01 0 1 -1
2458 820 3 4.0999999999999998e-01 3.6091842867357062e+00 9.4522789803658096e+00 1.7194386188301081e+01 0 0 -1
6104 2035 4 -8.1999999999999995e-01 5.9441872618323863e+00 5.0261974714445552e+00 1.7919699290892435e+01 -1 0 0
6105 2035 3 4.0999999999999998e-01 6.6449620959516311e+00 5.0440662085327332e+00 1.7227774510669466e+01 -1 0 0
1381 461 3 4.0999999999999998e-01 4.2677181666449551e+00 4.4971242657948132e+00 1.7363694228681663e+01 -1 -2 1
4677 1559 3 4.0999999999999998e-01 7.0960976769149264e-01 5.1745285975525830e+00 2.0483316970470494e+01 2 0 -1
1136 379 4 -8.1999999999999995e-01 9.3467110785267149e+00 8.3582477643628135e+00 1.8471828375814503e+01 0 1 -1
1048 350 3 4.0999999999999998e-01 1.2066903490326670e+00 9.4176604668166597e+00 1.3085836030725874e+01 -1 2 2
1382 461 4 -8.1999999999999995e-01 3.3171022115749822e+00 4.5567237194124486e+00 1.6921629379475267e+01 -1 -2 1
1410 470 3 4.0999999999999998e-01 1.2732757023676204e+00 2.8459744483476155e+00 1.8204065459550463e+01 1 -1 0
4612 1538 3 4.0999999999999998e-01 9.8708474937103396e+00 3.5674282072483243e+00 1.2265439452513954e+01 1 1 2
5941 1981 3 4.0999999999999998e-01 5.6243996340334146e+00 2.9288858714248502e+00 1.3266815757960707e+01 1 1 1
3854 1285 4 -8.1999999999999995e-01 9.2374102186266942e+00 2.8192162910069176e+00 1.7280250485224904e+01 1 1 1
3762 1254 3 4.0999999999999998e-01 3.5855786170929704e+00 7.3475157602709631e+00 1.3810436320180717e+01 1 -1 -2
3908 1303 4 -8.1999999999999995e-01 1.6765639018785985e+00 5.7033355858303771e+00 1.9237945518952667e+01 0 1 -1
394 132 3 4.0999999999999998e-01 2.3413635109650923e+00 1.6774899531095953e+00 1.7414331026761126e+01 3 1 1
1220 407 4 -8.1999999999999995e-01 8.3994493921225466e+00 1.6301368749515535e+00 1.0629090651066843e+01 1 0 1
6049 2017 3 4.0999999999999998e-01 1.0105109151335826e+01 7.2477138498591902e+00 1.0717690778920080e+01 0 1 0
1409 470 4 -8.1999999999999995e-01 5.1208850992207777e-01 3.4812743975763158e+00 1.8057492492710832e+01 1 -1 0
5886 1962 3 4.0999999999999998e-01 6.9935497229774768e+00 1.3768876066515172e+00 1.8936648063127347e+01 1 2 -2
2565 855 3 4.0999999999999998e-01 8.5892416559486779e+00 4.1878241876950630e+00 1.6735703268040428e+01 -1 0 1
2806 936 3 4.0999999999999998e-01 5.3854314672469936e+00 6.0192775727112675e+00 1.1461125970685204e+01 3 0 1
6900 2300 3 4.0999999999999998e-01 2.2071556055409389e+00 1.7404097027160481e+00 1.2257039837733396e+01 0 1 1
5942 1981 4 -8.1999999999999995e-01 5.5396853021331767e+00 3.4601148673707547e+00 1.4112661306964110e+01 1 1 1
6112 2038 3 4.0999999999999998e-01 5.4697113263008923e+00 1.0022011066601472e+01 1.7584807769752263e+01 2 1 1
7271 2424 4 -8.1999999999999995e-01 3.1091824438098730e+00 1.5538478800237052e+00 1.3498005001960033e+01 1 1 0
7081 2361 3 4.0999999999999998e-01 5.4351251352942551e+00 1.4482991508243215e+00 1.1599296005290904e+01 0 0 2
395 132 4 -8.1999999999999995e-01 3.1006303748771438e+00 2.1155118188025384e+00 1.7975406952604036e+01 3 1 1
1221 407 3 4.0999999999999998e-01 8.9060552012064989e+00 2.5556666987294805e+00 1.0789926416439943e+01 1 0 1
948 316 3 4.0999999999999998e-01 3.7092155398439322e+00 4.6007273778974431e+00 1.3936539060633898e+01 0 1 0
7270 2424 3 4.0999999999999998e-01 2.4326755968609133e+00 1.6157472854023380e+00 1.4237409864868891e+01 1 1 0
1607 536 4 -8.1999999999999995e-01 2.6293152543011105e+00 8.0995847763194799e+00 1.9812824290866754e+01 -1 0 1
449 150 4 -8.1999999999999995e-01 5.1609358815176796e+00 5.9334810874554718e+00 1.3316440635252704e+01 0 1 0
3935 1312 4 -8.1999999999999995e-01 1.4836248348348022e+00 5.7331467997312133e+00 1.5321524573303460e+01 0 -2 -2
4613 1538 4 -8.1999999999999995e-01 9.9290158028642246e+00 4.0420849752761656e+00 1.1342555231359624e+01 1 1 2
3749 1250 4 -8.1999999999999995e-01 6.0317544747530052e+00 1.0090399446505387e+01 1.3404813994746707e+01 0 0 0
1959 653 3 4.0999999999999998e-01 8.2429510280301510e-01 4.0166255033438896e+00 1.3799424175995934e+01 1 2 1
707 236 4 -8.1999999999999995e-01 6.4632820614989797e+00 7.4696782489280098e+00 1.8852262970199558e+01 1 1 1
5943 1981 3 4.0999999999999998e-01 5.7886369301296190e+00 2.7718959258819380e+00 1.4830884635555696e+01 1 1 1
1408 470 3 4.0999999999999998e-01 7.5461569833308006e-01 4.4248569154636694e+00 1.8345221491023700e+01 1 -1 0
6484 2162 3 4.0999999999999998e-01 8.9324319738418616e+00 1.0023322643093016e+01 1.4897947177285710e+01 -1 0 2
3909 1303 3 4.0999999999999998e-01 1.9233843269959681e+00 6.7236042123968103e+00 1.9384021718422748e+01 0 1 -1
2031 677 3 4.0999999999999998e-01 9.0311328542454810e+00 9.6540893440295861e+00 1.1852520645186855e+01 2 0 -1
1606 536 3 4.0999999999999998e-01 2.7324875212477511e+00 8.7326512675904588e+00 1.8990325716732968e+01 -1 0 1
398 133 4 -8.1999999999999995e-01 1.2130964695152606e+00 1.3772640235752003e+00 1.5622276862337417e+01 -1 1 -1
3761 1254 4 -8.1999999999999995e-01 2.7597553092539222e+00 7.8613059617750132e+00 1.4146204745825743e+01 1 -1 -2
2030 677 4 -8.1999999999999995e-01 8.4898221327259762e+00 1.0500585132332516e+01 1.1993555971065312e+01 2 0 -1
1047 349 3 4.0999999999999998e-01 3.4315409011724576e+00 9.7906612653609084e+00 1.1642587812999688e+01 3 0 -1
2459 820 4 -8.1999999999999995e-01 3.1588914445193748e+00 1.0167312614063281e+01 1.7879473473058425e+01 0 0 -1
1979 660 4 -8.1999999999999995e-01 9.3010327269084616e+00 3.6573727321185872e+00 2.0518439100416320e+01 3 2 0
3748 1250 3 4.0999999999999998e-01 5.0224621698055936e+00 1.0281437916849189e+01 1.3118853265498457e+01 0 0 0
2564 855 4 -8.1999999999999995e-01 8.2917115944014892e+00 5.1668770946946525e+00 1.6566342040408014e+01 -1 0 1
3760 1254 3 4.0999999999999998e-01 2.4930816397003217e+00 7.2961512094347452e+00 1.5001380697023672e+01 1 -1 -2
946 316 3 4.0999999999999998e-01 2.9078073264866497e+00 3.1984267836151381e+00 1.3627929688267409e+01 0 1 0
1046 349 4 -8.1999999999999995e-01 3.7152647103591105e+00 1.0544560959296248e+01 1.2197522805625379e+01 3 0 -1
3936 1312 3 4.0999999999999998e-01 1.8253351645121665e+00 5.3502996977386150e+00 1.4405619014635670e+01 0 -2 -2
3934 1312 3 4.0999999999999998e-01 2.1786179754198955e+00 5.3704570338874280e+00 1.5973378887018006e+01 0 -2 -2
3855 1285 3 4.0999999999999998e-01 8.9613307929546675e+00 2.0902805856841526e+00 1.7919595870843526e+01 1 1 1
5884 1962 3 4.0999999999999998e-01 7.8778647244214994e+00 1.2632533377382948e+00 2.0321476796634958e+01 1 2 -2
1383 461 3 4.0999999999999998e-01 2.8927001356819475e+00 3.5775862127490718e+00 1.7019672502284660e+01 -1 -2 1
450 150 3 4.0999999999999998e-01 5.2615159907041553e+00 4.9366681271756301e+00 1.3569104350648383e+01 0 1 0
1137 379 3 4.0999999999999998e-01 9.9631397407036992e+00 7.7983715620855998e+00 1.7837182256528827e+01 0 1 -1
3750 1250 3 4.0999999999999998e-01 6.1413244190029372e+00 9.1431628704662984e+00 1.3672546461323915e+01 0 0 0
1978 660 3 4.0999999999999998e-01 9.5585526819905731e+00 4.5910418974340637e+00 2.0247447346451626e+01 3 2 0
6485 2162 4 -8.1999999999999995e-01 8.6015081180751114e+00 9.0199368318050368e+00 1.4835383318232209e+01 -1 0 2
5697 1899 3 4.0999999999999998e-01 9.8485691289988058e+00 2.3598195797647419e+00 1.4020757732087217e+01 -1 2 0
3079 1027 3 4.0999999999999998e-01 4.9370390732473091e+00 2.4519239152569786e-01 1.5691017736175278e+01 0 0 0
6933 2311 3 4.0999999999999998e-01 6.0617213022373928e+00 4.0944823408192654e+00 1.9721693973753624e+01 0 1 -1
6899 2300 4 -8.1999999999999995e-01 1.6089174091834870e+00 1.5488238352541885e+00 1.1394782355135543e+01 0 1 1
3234 1078 3 4.0999999999999998e-01 5.3951204580192602e+00 7.7446902814213852e+00 1.7131547568960862e+01 2 -1 2
3791 1264 4 -8.1999999999999995e-01 6.9191571180047751e+00 7.0294353922437907e+00 1.5042747989726209e+01 3 0 0
396 132 3 4.0999999999999998e-01 3.4009174470924570e+00 1.3036665468974125e+00 1.8530940331947320e+01 3 1 1
6103 2035 3 4.0999999999999998e-01 6.1425187290401313e+00 5.8698166786797339e+00 1.8528327658444962e+01 -1 0 0
6932 2311 4 -8.1999999999999995e-01 6.3954755599702269e+00 3.6752085045462706e+00 2.0652229369584571e+01 0 1 -1
3790 1264 3 4.0999999999999998e-01 7.6032023543851190e+00 7.8353397332772294e+00 1.5197468464529138e+01 3 0 0
706 236 3 4.0999999999999998e-01 7.4609653343915845e+00 7.7089301912179922e+00 1.8765193843140086e+01 1 1 1
448 150 3 4.0999999999999998e-01 5.9077165768758784e+00 6.3476843906193139e+00 1.3852531513768424e+01 0 1 0
2563 855 3 4.0999999999999998e-01 9.1010197163947328e+00 5.6948540339899081e+00 1.6343589672773732e+01 -1 0 1
3792 1264 3 4.0999999999999998e-01 7.2065039247493425e+00 6.2821475645604776e+00 1.5717678473680053e+01 3 0 0
3853 1285 3 4.0999999999999998e-01 1.0245038031448717e+01 2.7432250190355334e+00 1.7102978197409840e+01 1 1 1
3081 1027 3 4.0999999999999998e-01 6.1574892098246172e+00 3.8623807071283095e-01 1.4553435930636047e+01 0 0 0
5261 1754 4 -8.1999999999999995e-01 8.4771577978533301e+00 1.6373246908231676e+00 1.4479574786439558e+01 3 1 0
5260 1754 3 4.0999999999999998e-01 8.4007988824328930e+00 7.5677531933951636e-01 1.5037989394658394e+01 3 1 0
5885 1962 4 -8.1999999999999995e-01 7.6799291740628748e+00 8.5679149257646525e-01 1.9438748762197438e+01 1 2 -2
5262 1754 3 4.0999999999999998e-01 7.5813356660462361e+00 2.0389920247719511e+00 1.4434343740287639e+01 3 1 0
1135 379 3 4.0999999999999998e-01 8.8955432700132633e+00 9.1377416542467973e+00 1.8029819811684234e+01 0 1 -1
4780 1594 3 4.0999999999999998e-01 3.6846173097426466e-01 7.0893982111618925e+00 1.5888425962829151e+01 0 1 3
399 133 3 4.0999999999999998e-01 4.9582956222418373e-01 1.9078529588731872e+00 1.5092632207950324e+01 -1 1 -1
4521 1507 3 4.0999999999999998e-01 9.4939795270798442e+00 7.2429316413320013e+00 1.9584477969758169e+01 -2 0 0
4520 1507 4 -8.1999999999999995e-01 9.3908008470911994e+00 6.4807920281352276e+00 2.0304025199731409e+01 -2 0 0
7082 2361 4 -8.1999999999999995e-01 5.9436381339407989e+00 2.3433290972009919e+00 1.1725806914149258e+01 0 0 2
6051 2017 3 4.0999999999999998e-01 8.4832366481609291e+00 7.8838398877153679e+00 1.0949268177056428e+01 0 1 0
6050 2017 4 -8.1999999999999995e-01 9.3225824710344192e+00 7.5129770284060680e+00 1.1409457781115799e+01 0 1 0
1049 350 4 -8.1999999999999995e-01 7.0991647436541250e-01 1.0049197964550430e+01 1.2470438466784607e+01 -1 2 2
581 194 4 -8.1999999999999995e-01 4.2096068876602599e+00 5.1453606089203008e-01 1.9826269351023146e+01 -1 0 -1
947 316 4 -8.1999999999999995e-01 2.8750364290086403e+00 4.2497196842821614e+00 1.3476453783796634e+01 0 1 0
1608 536 3 4.0999999999999998e-01 3.0032409777457612e+00 8.5617446393973538e+00 2.0603732693358964e+01 -1 0 1
1308 436 3 4.0999999999999998e-01 6.9715014925410461e+00 1.0507882066858208e+01 2.0461235525414530e+01 -2 0 0
1219 407 3 4.0999999999999998e-01 7.6102403963279253e+00 1.6542255093095828e+00 1.1369026581133479e+01 1 0 1
2029 677 3 4.0999999999999998e-01 7.7093383821089176e+00 1.0475828464836050e+01 1.2688366926616501e+01 2 0 -1
4519 1507 3 4.0999999999999998e-01 1.0310119610072753e+01 6.6484940671443109e+00 2.0736585543506834e+01 -2 0 0
468 156 3 4.0999999999999998e-01 7.2879737200490780e-01 1.0464487303613614e+01 1.9258813786804541e+01 -1 1 3
1980 660 3 4.0999999999999998e-01 8.3174301633722472e+00 3.6385864128622192e+00 2.0313103711480416e+01 3 2 0
5721 1907 3 4.0999999999999998e-01 1.0134668724243248e+01 7.5968194327281227e+00 1.2815624274973258e+01 0 1 2
7083 2361 3 4.0999999999999998e-01 5.9580989788439016e+00 2.8763697268535724e+00 1.0841646274860043e+01 0 0 2
580 194 3 4.0999999999999998e-01 4.3311317728158709e+00 9.0026201442412768e-01 2.0780226256912826e+01 -1 0 -1
1171 391 3 4.0999999999999998e-01 6.1215732363854103e-01 8.3745300457754386e+00 2.0974775482172269e+01 1 0 0
6209 2070 4 -8.1999999999999995e-01 7.7775422548416562e-01 4.0242802089713665e+00 2.9709474515281627e+01 2 1 -1
2128 710 3 4.0999999999999998e-01 2.5702296853722406e+00 3.9563689155806627e+00 2.6710013132549193e+01 -1 -1 -2
1678 560 3 4.0999999999999998e-01 8.0537144543885031e+00 1.0280233208678780e+00 2.6749690777083071e+01 -3 0 -2
6536 2179 4 -8.1999999999999995e-01 4.4411626089311262e+00 2.0846231434689328e+00 2.2104728166402690e+01 -1 3 1
1724 575 4 -8.1999999999999995e-01 5.7416177267254520e+00 9.1168590229341380e+00 2.9750815397290825e+01 2 -1 -1
55 19 3 4.0999999999999998e-01 2.6361262758446906e+00 8.8553559503312123e+00 2.2900667286485671e+01 1 0 1
5497 1833 3 4.0999999999999998e-01 4.0667901602502745e+00 5.0303440924530056e+00 3.0261335743332840e+01 1 2 -1
4150 1384 3 4.0999999999999998e-01 6.6360725035119508e+00 4.9703875386804999e+00 2.9494155615006619e+01 2 0 0
5498 1833 4 -8.1999999999999995e-01 4.3478860342881491e+00 4.2368556624253673e+00 3.0846217625805249e+01 1 2 -1
2164 722 3 4.0999999999999998e-01 4.6986596271740115e+00 8.2818606950853066e+00 2.4844328328326817e+01 0 0 1
1306 436 3 4.0999999999999998e-01 6.6135846071562607e+00 1.0306280856628618e+01 2.2047580180297601e+01 -2 0 0
4183 1395 3 4.0999999999999998e-01 9.8461065483715693e+00 8.7371679509432205e+00 2.5532839273753577e+01 -2 2 0
5509 1837 3 4.0999999999999998e-01 1.8313837611600023e+00 5.5541637053678148e+00 2.5521186880491772e+01 1 0 2
2379 793 3 4.0999999999999998e-01 1.9207712351330977e+00 8.0248640422649071e+00 2.7498339058903902e+01 0 0 1
901 301 3 4.0999999999999998e-01 8.2799463697268116e+00 7.7657454782674975e+00 2.9470556309016992e+01 -1 -1 -2
1457 486 4 -8.1999999999999995e-01 1.0062805086044735e+01 9.9804895394061166e-01 2.3806725531340078e+01 0 0 1
630 210 3 4.0999999999999998e-01 2.3549264779860399e+00 2.3332802946215070e-01 2.5009600529143928e+01 1 -2 -1
3143 1048 4 -8.1999999999999995e-01 1.0346502908511615e+01 5.0960400294295560e+00 2.4753326118096922e+01 1 1 3
5320 1774 3 4.0999999999999998e-01 1.0510067609366450e+01 1.0570455568465787e+01 2.5672443753832201e+01 3 2 -1
989 330 4 -8.1999999999999995e-01 6.2860110812807237e+00 1.0129933305261778e+01 2.7386220312252181e+01 0 1 1
7260 2420 3 4.0999999999999998e-01 6.4692210175553910e+00 7.5772837808032909e+00 2.9880774407521091e+01 1 2 0
2132 711 4 -8.1999999999999995e-01 6.6616716303378629e+00 1.3175890828372083e+00 2.9969245717516166e+01 -1 3 0
57 19 3 4.0999999999999998e-01 3.2289262579360014e+00 1.0001824405430455e+01 2.1812831973786842e+01 1 0 1
1170 390 3 4.0999999999999998e-01 5.7009669292253289e+00 3.1883666861519555e+00 2.5226411790267669e+01 1 2 1
902 301 4 -8.1999999999999995e-01 8.8747512145635383e+00 8.4982038229684100e+00 2.9007317609711457e+01 -1 -1 -2
5490 1830 3 4.0999999999999998e-01 9.0978708163967370e-01 8.9384105094604038e+00 2.4587984686198141e+01 -2 0 2
2166 722 3 4.0999999999999998e-01 4.1940148938774762e+00 8.0683293897135595e+00 2.6325344573517146e+01 0 0 1
6996 2332 3 4.0999999999999998e-01 7.6794997303294066e+00 4.4999695240631246e+00 2.5969568514895531e+01 0 1 -2
3568 1190 3 4.0999999999999998e-01 8.2633215263751065e+00 6.2670100403342630e+00 2.1407469724873792e+01 0 1 1
3139 1047 3 4.0999999999999998e-01 1.3571794960006442e+00 1.8360328244618489e+00 2.4599133389739240e+01 0 2 0
2378 793 4 -8.1999999999999995e-01 9.4420838226750115e-01 8.3419654576258786e+00 2.7735184366992975e+01 0 0 1