LAMMPS data file via write_data, version 5 Jun 2019, timestep = 1000000

7349 atoms
5 atom types
4899 bonds
2 bond types
2451 angles
2 angle types
1 impropers
1 improper types

1.5519297081455363e-01 4.1845807029189409e+01 xlo xhi
1.5469297081455124e-01 4.1845307029189406e+01 ylo yhi
1.5469297081455124e-01 4.1845307029189406e+01 zlo zhi

#Masses
#
#1 12.01
#2 40.08
#3 1.01
#4 16
#5 16
#
#Bond Coeffs # harmonic
#
#1 20.4246 1.3042
#2 22.965 1.012

Atoms # full

5900 1967 4 -8.1999999999999995e-01 4.4829447769231601e-01 8.6063080672731562e+00 6.0208240945557003e+00 1 1 1
6296 2099 4 -8.1999999999999995e-01 6.0566741333132024e+00 8.5026962740647196e+00 5.3083444649800109e+00 0 0 1
2059 687 3 4.0999999999999998e-01 6.0281948399438985e+00 3.4441316153858870e-01 1.8220073157689249e+00 1 2 1
1097 366 4 -8.1999999999999995e-01 8.9786687759710979e+00 1.7544255282971839e+00 6.7600083351310569e-01 0 0 0
27 9 3 4.0999999999999998e-01 5.9977010255502727e-01 1.0268014372251372e+01 5.1387345207411199e+00 1 0 1
5460 1820 3 4.0999999999999998e-01 2.6480047965187219e+00 4.8571074215400323e+00 6.7764702492562181e+00 1 1 0
2665 889 3 4.0999999999999998e-01 5.3439677873160720e+00 8.0346146118876298e+00 2.3451676126953633e+00 1 0 2
6639 2213 3 4.0999999999999998e-01 2.1561276058007879e+00 6.5568804494491744e+00 2.7400183717688870e-01 0 1 1
5000 1667 4 -8.1999999999999995e-01 6.9090739960766190e-01 1.0019174809856763e+01 2.0841976996773850e+00 -1 0 0
5041 1681 3 4.0999999999999998e-01 5.7739639721201046e+00 4.5921160829091399e+00 3.9011741220299556e+00 1 0 1
3285 1095 3 4.0999999999999998e-01 1.0221878186177012e+01 6.3039335575868369e+00 1.1511974137155077e+00 1 0 0
223 75 3 4.0999999999999998e-01 1.0104606133411618e+01 5.0211635772195224e+00 7.9116728617674115e+00 0 0 0
5458 1820 3 4.0999999999999998e-01 4.2733895006537814e+00 5.4461256672350924e+00 6.8599062727489448e+00 1 1 0
2667 889 3 4.0999999999999998e-01 4.6233532142819715e+00 6.5684850114246904e+00 2.8402925868359130e+00 1 0 2
3956 1319 4 -8.1999999999999995e-01 5.8214524987175542e+00 6.0035748902529456e+00 4.7347981269325579e-01 0 0 1
3907 1303 3 4.0999999999999998e-01 3.9286511098432824e+00 4.3046386452276240e+00 1.8992652599400452e+00 1 0 0
201 67 3 4.0999999999999998e-01 1.6209102899485364e+00 8.9586797069214974e+00 1.4803001019065205e+00 1 0 1
3284 1095 4 -8.1999999999999995e-01 9.9884489654000177e+00 5.8697979591109517e+00 2.3444653199536356e-01 1 0 0
4133 1378 4 -8.1999999999999995e-01 6.3848934707250606e+00 7.7223845272148028e-01 6.6218687350569780e+00 1 1 1
3013 1005 3 4.0999999999999998e-01 9.9257788965302201e+00 2.5379575163750161e+00 2.1017650551926614e+00 1 2 0
5685 1895 3 4.0999999999999998e-01 8.9889533317756367e+00 3.2559067895555005e+00 6.9814600656900740e+00 1 1 2
5899 1967 3 4.0999999999999998e-01 1.2401968742299947e+00 8.1738869827947038e+00 5.5149879465655456e+00 1 1 1
3833 1278 4 -8.1999999999999995e-01 6.6436004339359158e+00 4.0183716208513696e+00 9.8804279091707325e+00 0 1 1
3066 1022 3 4.0999999999999998e-01 6.0076836279565538e-01 9.1893002261673811e+00 7.7844231282459777e+00 0 0 2
978 326 3 4.0999999999999998e-01 8.3950833724345344e+00 5.5655663110292259e+00 3.5984062606195506e+00 1 -1 1
2213 738 4 -8.1999999999999995e-01 8.4350999268015130e+00 2.0317174546834900e+00 1.0344319836524940e+01 0 0 0
6022 2008 3 4.0999999999999998e-01 9.8923605543696436e+00 1.6777598485530185e+00 4.3414897981708833e+00 2 1 1
3789 1263 3 4.0999999999999998e-01 3.5642983663228960e+00 7.0046029158017804e+00 9.2975799768244141e+00 -1 0 0
4623 1541 3 4.0999999999999998e-01 7.4107750523707050e-01 2.6996971910251362e+00 5.7576666800116367e+00 0 0 0
1033 345 3 4.0999999999999998e-01 7.7502221531141782e+00 3.2333280184429192e-01 1.0358652451095251e+01 1 -1 1
1643 548 4 -8.1999999999999995e-01 1.4377783364965793e+00 1.2664795678277101e+00 1.1002644434650288e+00 1 0 0
1096 366 3 4.0999999999999998e-01 8.6934384558207718e+00 2.7102336096338773e+00 6.2817495531429657e-01 0 0 0
3908 1303 4 -8.1999999999999995e-01 4.4145811669641448e+00 5.0885016067573643e+00 2.4267458844514205e+00 1 0 0
2041 681 3 4.0999999999999998e-01 2.2339839354651420e-01 9.3518307511754406e-01 2.7159622050884047e+00 0 0 0
5767 1923 3 4.0999999999999998e-01 5.0234877169065948e+00 1.1240090994151399e+00 3.2568711711980103e+00 1 0 -1
5011 1671 3 4.0999999999999998e-01 8.8311442718138067e-01 6.1045862673308351e+00 4.2242594757824241e+00 1 0 0
2528 843 4 -8.1999999999999995e-01 2.5045425483244816e+00 2.4222904719615630e+00 6.4940476655001520e+00 0 -1 1
4888 1630 3 4.0999999999999998e-01 5.5549031453408384e+00 8.8968967954077414e+00 8.8671348800611955e+00 1 0 0
270 90 3 4.0999999999999998e-01 3.2295620042647397e+00 4.7881209308937391e+00 9.7195781148939879e+00 1 1 1
6295 2099 3 4.0999999999999998e-01 6.9517486012648195e+00 8.0401927223133356e+00 5.5889656516210868e+00 0 0 1
6024 2008 3 4.0999999999999998e-01 8.6722109732045389e+00 5.3574678117806318e-01 4.4815950237380955e+00 2 1 1
5939 1980 4 -8.1999999999999995e-01 8.4157588678741710e+00 7.3321664619532330e+00 5.7562758039230895e+00 0 0 0
4890 1630 3 4.0999999999999998e-01 6.3427346392650872e+00 9.0256186171630723e+00 1.0364432577294549e+01 1 0 0
2683 895 3 4.0999999999999998e-01 1.6399207598567436e+00 6.7858091566613910e+00 1.0253104306367122e+01 0 1 1
5424 1808 3 4.0999999999999998e-01 3.9757588017010854e+00 2.6491252872833582e+00 9.8481462003773697e+00 -1 -1 0
269 90 4 -8.1999999999999995e-01 3.0399837107997647e+00 5.6987512598049266e+00 1.0135856394073905e+01 1 1 1
1098 366 3 4.0999999999999998e-01 8.1845953671197531e+00 1.1414425139801938e+00 8.6920558962983252e-01 0 0 0
2483 828 4 -8.1999999999999995e-01 1.9320855322411207e-01 3.5980074285756991e-01 1.0004662332903450e+01 0 1 -1
3065 1022 4 -8.1999999999999995e-01 5.2791131710306338e-01 9.5186631497610232e+00 8.7444094988685102e+00 0 0 2
5769 1923 3 4.0999999999999998e-01 4.5031406721810301e+00 2.2419120538744153e+00 1.9871542205616024e+00 1 0 -1
6394 2132 3 4.0999999999999998e-01 5.3267621094573192e+00 9.9410457206096243e+00 5.9865002292316118e+00 1 0 0
2529 843 3 4.0999999999999998e-01 2.4030841921475234e+00 1.5975050456659676e+00 7.0333480268495112e+00 0 -1 1
5768 1923 4 -8.1999999999999995e-01 5.2165050453255990e+00 1.6343901780373564e+00 2.3743878020028091e+00 1 0 -1
530 177 4 -8.1999999999999995e-01 8.7015852211995668e+00 8.1225763807675566e+00 8.4234125105636100e+00 1 0 0
1914 638 3 4.0999999999999998e-01 1.0356280947609307e+01 5.2159084726546823e+00 1.0330640564856113e+01 0 0 0
200 67 4 -8.1999999999999995e-01 2.1511573815761662e+00 8.1855583354993779e+00 9.7716629285846535e-01 1 0 1
5043 1681 3 4.0999999999999998e-01 6.1375808903831732e+00 4.6114733376310646e+00 5.4016721661955120e+00 1 0 1
3488 1163 4 -8.1999999999999995e-01 8.3456869725462060e+00 1.0136080181089772e+01 1.8859218381752665e+00 0 0 0
3064 1022 3 4.0999999999999998e-01 7.8233535709512936e-01 8.8236856836700142e+00 9.4434140323188007e+00 0 0 2
5459 1820 4 -8.1999999999999995e-01 3.2863321105096834e+00 5.6569757607087974e+00 6.6992196603689456e+00 1 1 0
5423 1808 4 -8.1999999999999995e-01 3.4539355749340888e+00 3.1231148009291538e+00 9.1047297276877188e+00 -1 -1 0
529 177 3 4.0999999999999998e-01 7.8609990230771380e+00 8.6652814119259176e+00 8.6847267477840084e+00 1 0 0
4889 1630 4 -8.1999999999999995e-01 6.1771183844189634e+00 9.4972795756180179e+00 9.4308825151916107e+00 1 0 0
4905 1635 3 4.0999999999999998e-01 3.4448094860440164e+00 9.4703036095983659e+00 8.5731305632613424e+00 1 1 -1
5669 1890 4 -8.1999999999999995e-01 9.6096328865217089e+00 8.5165866793557221e+00 3.7290833637424186e+00 1 0 1
6297 2099 3 4.0999999999999998e-01 5.5904612708197430e+00 7.9953532007139447e+00 4.5353693745704566e+00 0 0 1
2527 843 3 4.0999999999999998e-01 3.3533329309241160e+00 2.4575937803129095e+00 5.8982429869199562e+00 0 -1 1
3787 1263 3 4.0999999999999998e-01 3.7418868827997480e+00 7.0587385779649390e+00 7.6759710866910300e+00 -1 0 0
3834 1278 3 4.0999999999999998e-01 7.2822226164748987e+00 3.2796665644588283e+00 1.0223616860953225e+01 0 1 1
5940 1980 3 4.0999999999999998e-01 9.0587443687867690e+00 7.7359258595146487e+00 5.0543851764112029e+00 0 0 0
1485 495 3 4.0999999999999998e-01 6.8886675064091083e+00 5.3293406369914740e+00 7.2035338703154892e+00 1 1 0
2666 889 4 -8.1999999999999995e-01 4.6540483017563643e+00 7.5743437331404841e+00 2.9593069744485465e+00 1 0 2
4260 1420 3 4.0999999999999998e-01 9.8214551112428339e+00 4.5073393929655019e+00 5.4290632721311418e+00 1 0 1
5670 1890 3 4.0999999999999998e-01 9.0300735066246371e+00 8.9071638882678261e+00 2.9638131659011693e+00 1 0 1
4258 1420 3 4.0999999999999998e-01 9.1450041469919796e+00 5.8469164389183517e+00 6.1537396655313037e+00 1 0 1
1484 495 4 -8.1999999999999995e-01 5.9605936441922847e+00 4.9167247080555612e+00 7.0302340823469125e+00 1 1 0
3909 1303 3 4.0999999999999998e-01 4.9886128791466513e+00 5.3485778015575365e+00 1.5657957566018337e+00 1 0 0
5798 1933 4 -8.1999999999999995e-01 3.3365781179331502e+00 3.3487870203441457e+00 8.2867636685175805e-01 1 -1 0
531 177 3 4.0999999999999998e-01 9.4550490561142535e+00 8.4658170363022656e+00 9.0760762797025318e+00 1 0 0
3015 1005 3 4.0999999999999998e-01 1.0001142580405622e+01 3.9962703128802866e+00 2.8239794121801371e+00 1 2 0
2160 720 3 4.0999999999999998e-01 2.7960272482339530e+00 6.7217344552990506e+00 5.4147778044702646e+00 1 0 0
3955 1319 3 4.0999999999999998e-01 6.3190606806182634e+00 6.9019330874347951e+00 5.1634822550570458e-01 0 0 1
2437 813 3 4.0999999999999998e-01 5.8159461516323683e+00 9.4105840548141266e+00 4.7503288330986781e-01 0 1 0
2158 720 3 4.0999999999999998e-01 3.3368810800870823e+00 7.6428298179451541e+00 4.1082350388130120e+00 1 0 0
4132 1378 3 4.0999999999999998e-01 6.9839693261367728e+00 1.5108766577654822e+00 6.9654086232263257e+00 1 1 1
4259 1420 4 -8.1999999999999995e-01 9.5404412952232871e+00 4.8919958558454510e+00 6.3190549212211744e+00 1 0 1
5001 1667 3 4.0999999999999998e-01 8.4252388320066418e-01 1.0339226157296977e+01 3.0875629189078944e+00 -1 0 0
5668 1890 3 4.0999999999999998e-01 1.0098902573676805e+01 9.3157894435526671e+00 4.1484197777152900e+00 1 0 1
1483 495 3 4.0999999999999998e-01 5.7609923477548319e+00 4.2382285086075555e+00 7.8096309357760303e+00 1 1 0
5938 1980 3 4.0999999999999998e-01 8.5515993368976684e+00 7.6236193872383105e+00 6.7210770062087661e+00 0 0 0
5422 1808 3 4.0999999999999998e-01 2.6939247670284932e+00 2.5748686335949071e+00 8.7163592045493683e+00 -1 -1 0
6595 2199 3 4.0999999999999998e-01 5.2208152864125177e+00 2.9541847504601213e+00 4.5538667288698464e+00 1 0 -1
6023 2008 4 -8.1999999999999995e-01 9.4705428616614675e+00 1.0044754540441851e+00 4.9954066447242296e+00 2 1 1
5042 1681 4 -8.1999999999999995e-01 6.5442385245472892e+00 4.4339703436252131e+00 4.5241710582552237e+00 1 0 1
2159 720 4 -8.1999999999999995e-01 2.4754054879493212e+00 7.3447785159814574e+00 4.6259417585828029e+00 1 0 0
976 326 3 4.0999999999999998e-01 9.3680620021630236e+00 6.8323625209911665e+00 3.3618151997851879e+00 1 -1 1
3788 1263 4 -8.1999999999999995e-01 3.9328832270037410e+00 7.5740237925344518e+00 8.5256452814107408e+00 -1 0 0
6597 2199 3 4.0999999999999998e-01 5.3416794243375394e+00 1.9259323255633876e+00 5.7793772812375517e+00 1 0 -1
5683 1895 3 4.0999999999999998e-01 9.4299430167566580e+00 1.7218133827824822e+00 7.4182655480222710e+00 1 1 2
2438 813 4 -8.1999999999999995e-01 6.1749813623445480e+00 8.7515825358063530e+00 1.2028697866488360e+00 0 1 0
2214 738 3 4.0999999999999998e-01 8.7814921510238513e+00 2.3930098368563515e+00 9.4284051885395233e+00 0 0 0
6596 2199 4 -8.1999999999999995e-01 4.6955593074449853e+00 2.3029288400502015e+00 5.1076304775356940e+00 1 0 -1
5799 1933 3 4.0999999999999998e-01 2.9054310117656197e+00 4.0668232130239197e+00 2.4160286911823914e-01 1 -1 0
977 326 4 -8.1999999999999995e-01 9.3231611086853476e+00 5.8126385209275959e+00 3.2824434076885325e+00 1 -1 1
2482 828 3 4.0999999999999998e-01 8.4713085305963509e-01 2.7071488489007922e-01 9.2005828850646019e+00 0 1 -1
199 67 3 4.0999999999999998e-01 2.9104425830544023e+00 7.8990784904150892e+00 1.5912852702038189e+00 1 0 1
5684 1895 4 -8.1999999999999995e-01 8.7919531937178039e+00 2.4883803067175494e+00 7.5751780001971563e+00 1 1 2
3489 1163 3 4.0999999999999998e-01 8.5568745784503939e+00 1.0190541920899307e+01 8.5982509089505366e-01 0 0 0
2439 813 3 4.0999999999999998e-01 6.9956479210772651e+00 9.2382054877549535e+00 1.6409686642817627e+00 0 1 0
4903 1635 3 4.0999999999999998e-01 2.1817327951864063e+00 1.0447778094613472e+01 8.7218449861830685e+00 1 1 -1
3014 1005 4 -8.1999999999999995e-01 1.0290664363326218e+01 3.0261854021635042e+00 2.9166075503480733e+00 1 2 0
1644 548 3 4.0999999999999998e-01 2.0800386585035779e+00 2.0360105264347297e+00 1.2399114022222069e+00 1 0 0
4904 1635 4 -8.1999999999999995e-01 3.1998467831075024e+00 1.0452885226865583e+01 8.6141151272532621e+00 1 1 -1
1642 548 3 4.0999999999999998e-01 7.1143461096264493e-01 1.6955594226325938e+00 4.3557757394295465e-01 1 0 0
4798 1600 3 4.0999999999999998e-01 7.0287679011309878e+00 4.6749824390884616e+00 2.8981915736210950e-01 -1 -1 0
2684 895 4 -8.1999999999999995e-01 7.4097478693088703e-01 7.3053706680990356e+00 1.0366658981321109e+01 0 1 1
4800 1600 3 4.0999999999999998e-01 8.6368971370186980e+00 4.9108287710575187e+00 3.5749772542230956e-01 -1 -1 0
4799 1600 4 -8.1999999999999995e-01 7.8726375340506536e+00 4.1969497637594939e+00 1.8285000475334032e-01 -1 -1 0
3832 1278 3 4.0999999999999998e-01 5.6694299875209246e+00 3.6693508734448259e+00 1.0059110326562413e+01 0 1 1
6396 2132 3 4.0999999999999998e-01 4.1324945831366877e+00 1.0492549102327592e+01 7.1378458019570523e+00 1 0 0
2253 751 3 4.0999999999999998e-01 2.9880702598664404e+00 8.4147276814311560e+00 1.6679929278781287e+01 1 0 1
5469 1823 3 4.0999999999999998e-01 6.2916850625772058e+00 8.3688719476875466e+00 1.2749334991050642e+01 0 1 -1
2940 980 3 4.0999999999999998e-01 1.8930255504853748e+00 2.1671114310324797e+00 1.3129405316671379e+01 1 0 0
367 123 3 4.0999999999999998e-01 5.6619112106369966e+00 5.7190442681534159e-01 1.5108656979013858e+01 0 0 1
6824 2275 4 -8.1999999999999995e-01 2.4502531095297648e+00 7.0149425747552829e+00 1.9694537082040263e+01 0 0 -1
5368 1790 3 4.0999999999999998e-01 3.3127272534940273e+00 9.9883770610325389e+00 2.0439445110341925e+01 -1 0 2
6661 2221 3 4.0999999999999998e-01 2.5731420952879791e+00 4.2777167681132905e-01 1.4336926836624613e+01 1 1 1
7215 2405 3 4.0999999999999998e-01 1.4474358517148214e+00 2.8254272386268657e+00 1.5123700714085452e+01 1 0 1
3394 1132 3 4.0999999999999998e-01 1.4542730674994608e+00 7.3395031236071189e+00 1.4192816748328537e+01 0 1 0
4641 1547 3 4.0999999999999998e-01 2.4732350988075438e+00 5.5601207258542864e+00 1.3457557209630444e+01 1 1 1
4575 1525 3 4.0999999999999998e-01 8.3293526700156999e+00 6.5501955655530208e+00 1.8706221552993352e+01 0 0 0
658 220 3 4.0999999999999998e-01 7.0064933408277810e+00 5.4991722069691678e+00 1.6354588272377029e+01 1 -1 0
3073 1025 3 4.0999999999999998e-01 3.6652965457006319e+00 2.5904078660823355e+00 2.0051242196720043e+01 1 1 0
1231 411 3 4.0999999999999998e-01 7.2905110050124489e-01 8.3884767517553591e+00 1.2098176050663499e+01 1 1 1
6212 2071 4 -8.1999999999999995e-01 5.0572189302626542e+00 2.3587283418922116e+00 1.1264956004659817e+01 0 -1 -1
1990 664 3 4.0999999999999998e-01 4.8434575426404020e-01 4.8867685976975315e+00 1.7912376783293784e+01 1 0 0
6823 2275 3 4.0999999999999998e-01 2.3750205670691060e+00 7.3217415846400566e+00 1.8718320874210097e+01 0 0 -1
6211 2071 3 4.0999999999999998e-01 4.9876639568104055e+00 2.2424066579760300e+00 1.2283209911156000e+01 0 -1 -1
2938 980 3 4.0999999999999998e-01 2.4704219123518341e+00 3.7501276083679880e+00 1.3151862248935338e+01 1 0 0
6971 2324 4 -8.1999999999999995e-01 8.8189809485289601e+00 4.1788787650397707e-01 1.9700796528254919e+01 0 0 0
2168 723 4 -8.1999999999999995e-01 8.6226274175832867e+00 2.7340100139152104e+00 1.4964436580698676e+01 1 0 1
5024 1675 4 -8.1999999999999995e-01 4.9784557269190950e+00 5.7686019150364611e+00 2.0017656920046626e+01 1 0 0
704 235 4 -8.1999999999999995e-01 7.1974219874645708e+00 8.6205009507506034e+00 1.6419702679550877e+01 0 1 0
5073 1691 3 4.0999999999999998e-01 6.4414229244503893e+00 5.4480207701606220e+00 1.2989698614079133e+01 0 0 0
6599 2200 4 -8.1999999999999995e-01 7.3365425359039422e+00 5.9533970063273580e+00 1.1739336907736917e+01 1 1 -1
6213 2071 3 4.0999999999999998e-01 4.9545070383935803e+00 1.4219209538670750e+00 1.0866878473546498e+01 0 -1 -1
5369 1790 4 -8.1999999999999995e-01 4.3153403808339768e+00 1.0001792936310846e+01 2.0354209754535159e+01 -1 0 2
1045 349 3 4.0999999999999998e-01 2.9314745828890993e+00 4.3925837935282530e+00 1.8400557739750266e+01 2 1 0
3273 1091 3 4.0999999999999998e-01 1.7669903896161319e+00 1.3228374519546580e+00 1.7978301368860386e+01 1 1 -1
885 295 3 4.0999999999999998e-01 9.4527911157603768e+00 2.8227107032081014e+00 1.3214853135441876e+01 0 0 0
5621 1874 4 -8.1999999999999995e-01 6.3235687377194099e+00 1.5828086373285550e+00 1.3896950689893039e+01 0 0 0
5620 1874 3 4.0999999999999998e-01 7.1313294677559336e+00 2.0696099875532687e+00 1.4197168117083804e+01 0 0 0
2939 980 4 -8.1999999999999995e-01 1.8475241149242971e+00 3.0658677480867520e+00 1.3595499635539108e+01 1 0 0
6728 2243 4 -8.1999999999999995e-01 1.0342918504619272e+01 1.0325361352627520e+00 1.6297951201458112e+01 0 0 0
1913 638 4 -8.1999999999999995e-01 9.8540864633135143e+00 5.4157031489705938e+00 1.1217550670141327e+01 0 0 0
3075 1025 3 4.0999999999999998e-01 4.8742042351934174e+00 3.0000609397347313e+00 1.8944497141379909e+01 1 1 0
5467 1823 3 4.0999999999999998e-01 6.8669323962844118e+00 7.5096293003563703e+00 1.1498842155415643e+01 0 1 -1
1728 576 3 4.0999999999999998e-01 3.3054602834545723e+00 9.9181110721521470e+00 1.3944955045673758e+01 1 0 -1
1360 454 3 4.0999999999999998e-01 5.4793514527756981e+00 1.6817567666349813e+00 1.6958302840607011e+01 0 0 -1
703 235 3 4.0999999999999998e-01 7.2598067601765113e+00 9.6098171624700139e+00 1.6744033085420689e+01 0 1 0
5114 1705 4 -8.1999999999999995e-01 8.9494916230611610e-01 4.4154995018293797e-01 1.2738763042244621e+01 1 0 1
4803 1601 3 4.0999999999999998e-01 5.7167960872863857e+00 6.4516713432782451e+00 1.8648137752409045e+01 -1 1 -1
6288 2096 3 4.0999999999999998e-01 2.2336543650599019e+00 1.6445300726088055e+00 2.0090179974201426e+01 1 0 1
4802 1601 4 -8.1999999999999995e-01 5.6752271025015215e+00 7.1074614987993048e+00 1.7899833168215800e+01 -1 1 -1
3074 1025 4 -8.1999999999999995e-01 4.3587540101212543e+00 3.2718929291984722e+00 1.9809967649718715e+01 1 1 0
5023 1675 3 4.0999999999999998e-01 4.7826325411649746e+00 4.7416195980447045e+00 1.9828182016074347e+01 1 0 0
7213 2405 3 4.0999999999999998e-01 1.4992905272491461e+00 3.3834905827062327e+00 1.6762801560462414e+01 1 0 1
6727 2243 3 4.0999999999999998e-01 1.0165288855941709e+01 2.9269141577041896e-01 1.7006442868772858e+01 0 0 0
1046 349 4 -8.1999999999999995e-01 1.9342788115695615e+00 4.1484323547545765e+00 1.8278092545271026e+01 2 1 0
1912 638 3 4.0999999999999998e-01 1.0059056739565866e+01 4.5700681736843460e+00 1.1786668079280766e+01 0 0 0
7014 2338 3 4.0999999999999998e-01 9.9012603598162894e+00 1.5145058452284939e+00 2.0552525186901217e+01 0 1 -1
3396 1132 3 4.0999999999999998e-01 7.2162785638648819e-01 6.0487913556302537e+00 1.4687561575637377e+01 0 1 0
5113 1705 3 4.0999999999999998e-01 8.2359584714756973e-01 4.0612689603498409e-01 1.1676809533579819e+01 1 0 1
5357 1786 4 -8.1999999999999995e-01 1.0076504767853693e+01 7.7848496202971642e+00 1.6694166825426787e+01 1 1 0
5622 1874 3 4.0999999999999998e-01 6.6751093621333517e+00 8.1179473063581831e-01 1.3304492066976554e+01 0 0 0
268 90 3 4.0999999999999998e-01 3.1841330158539889e+00 5.4497366401357050e+00 1.1146260385027805e+01 1 1 1
4640 1547 4 -8.1999999999999995e-01 3.2496117757536802e+00 5.3090656632282105e+00 1.2835380508066960e+01 1 1 1
2169 723 3 4.0999999999999998e-01 8.0915458161172946e+00 3.4226970553757594e+00 1.5569830799094783e+01 1 0 1
6970 2324 3 4.0999999999999998e-01 8.0146341559904926e+00 8.9558959936120242e-01 1.9240514952710672e+01 0 0 0
1233 411 3 4.0999999999999998e-01 4.3940841283985771e-01 9.2798240243886809e+00 1.3481388111045717e+01 1 1 1
1361 454 4 -8.1999999999999995e-01 5.5633068426345478e+00 2.5930713326565558e+00 1.7302499779399479e+01 0 0 -1
2800 934 3 4.0999999999999998e-01 6.2838183580733045e+00 8.0637877111601988e+00 1.5201765650015867e+01 1 0 1
2801 934 4 -8.1999999999999995e-01 5.7313364775040414e+00 7.8942151239824971e+00 1.4347788064234635e+01 1 0 1
6125 2042 4 -8.1999999999999995e-01 9.3966569947158938e+00 9.4838771796347316e+00 1.2316669863519877e+01 0 1 1
6825 2275 3 4.0999999999999998e-01 3.4252331165297831e+00 6.6786067364056141e+00 1.9881657279165058e+01 0 0 -1
5072 1691 4 -8.1999999999999995e-01 5.7334776834765533e+00 5.2426973831913575e+00 1.3744210578161715e+01 0 0 0
5356 1786 3 4.0999999999999998e-01 9.2259696553028494e+00 8.0677444375613803e+00 1.6139645000537090e+01 1 1 0
5717 1906 4 -8.1999999999999995e-01 9.2321411171780419e+00 8.0649486203391767e+00 1.9153484007909988e+01 0 1 -1
2167 723 3 4.0999999999999998e-01 9.3384017648344688e+00 2.3620692798180696e+00 1.5559466578914218e+01 1 0 1
884 295 4 -8.1999999999999995e-01 1.0001927230678726e+01 3.0197027972675645e+00 1.2376801784566338e+01 0 0 0
2251 751 3 4.0999999999999998e-01 2.2874912087236261e+00 7.0316316239956995e+00 1.6191883527546789e+01 1 0 1
4574 1525 4 -8.1999999999999995e-01 8.3155033845402926e+00 5.5289351319785283e+00 1.8648370096874952e+01 0 0 0
5071 1691 3 4.0999999999999998e-01 6.1424500926844940e+00 4.6236801237239744e+00 1.4403729448356662e+01 0 0 0
5468 1823 4 -8.1999999999999995e-01 6.6708758717252055e+00 8.4413011520088919e+00 1.1794368299240025e+01 0 1 -1
705 235 3 4.0999999999999998e-01 6.7985521866667273e+00 8.0777375621574166e+00 1.7151557028524959e+01 0 1 0
2802 934 3 4.0999999999999998e-01 5.5920769702663247e+00 6.9077819933838374e+00 1.4067924448130178e+01 1 0 1
2252 751 4 -8.1999999999999995e-01 2.8401111174887368e+00 7.4399276819720699e+00 1.6996989216551025e+01 1 0 1
4573 1525 3 4.0999999999999998e-01 8.8090797765852322e+00 5.1350161301551642e+00 1.9463924274814623e+01 0 0 0
1362 454 3 4.0999999999999998e-01 6.0165997490719576e+00 3.2298655766654956e+00 1.6625628657833371e+01 0 0 -1
3395 1132 4 -8.1999999999999995e-01 1.4982540605332701e+00 6.6540120964715621e+00 1.4949749454360482e+01 0 1 0
5370 1790 3 4.0999999999999998e-01 4.5810349707164386e+00 1.0332624389171050e+01 1.9412266149867147e+01 -1 0 2
6126 2042 3 4.0999999999999998e-01 1.0210979704714061e+01 8.8279319991163998e+00 1.2274907258886897e+01 0 1 1
6287 2096 4 -8.1999999999999995e-01 2.0887194555910842e+00 2.2719493598182230e+00 2.0903974865733844e+01 1 0 1
6600 2200 3 4.0999999999999998e-01 6.8929925362924180e+00 5.3529794403970294e+00 1.0936053065666490e+01 1 1 -1
1232 411 4 -8.1999999999999995e-01 7.6323634266263585e-01 8.3737320954314711e+00 1.3093359249341873e+01 1 1 1
1726 576 3 4.0999999999999998e-01 4.2524752350249599e+00 8.9763220943564512e+00 1.4849194328522188e+01 1 0 -1
4801 1601 3 4.0999999999999998e-01 4.6905466467238011e+00 7.1530239708658145e+00 1.7679524326590247e+01 -1 1 -1
660 220 3 4.0999999999999998e-01 7.7152109663345048e+00 4.6249450983802589e+00 1.7284022905048065e+01 1 -1 0
4639 1547 3 4.0999999999999998e-01 4.2040524408676196e+00 5.2113523561566160e+00 1.3278297993012425e+01 1 1 1
6124 2042 3 4.0999999999999998e-01 8.6104637666057631e+00 8.9131311500798613e+00 1.2162075006412655e+01 0 1 1
7214 2405 4 -8.1999999999999995e-01 1.1709579190626089e+00 2.7063911024834568e+00 1.6099732882329633e+01 1 0 1
1047 349 3 4.0999999999999998e-01 1.5207964909695546e+00 3.7403986480754234e+00 1.9133057684657913e+01 2 1 0
5716 1906 3 4.0999999999999998e-01 9.6865803267655668e+00 7.9654718184110305e+00 1.8193269018685690e+01 0 1 -1
3272 1091 4 -8.1999999999999995e-01 2.0205541203191721e+00 6.6095576580602555e-01 1.8724947131251998e+01 1 1 -1
659 220 4 -8.1999999999999995e-01 7.2465200137244468e+00 4.5185767090451430e+00 1.6373232842587264e+01 1 -1 0
1727 576 4 -8.1999999999999995e-01 3.5024038170892902e+00 9.6316962530467567e+00 1.4881325543273688e+01 1 0 -1
2212 738 3 4.0999999999999998e-01 9.1107635133812650e+00 2.1879635998038971e+00 1.1098089360331951e+01 0 0 0
5718 1906 3 4.0999999999999998e-01 9.1546596131588540e+00 9.0944975334471660e+00 1.9248460918899713e+01 0 1 -1
6598 2200 3 4.0999999999999998e-01 8.3634553548826975e+00 5.8506455046878729e+00 1.1632727888521273e+01 1 1 -1
5025 1675 3 4.0999999999999998e-01 5.6446302584920325e+00 5.9931392195206605e+00 2.0765159035752440e+01 1 0 0
741 247 3 4.0999999999999998e-01 1.1497241192809864e+00 6.1316000959785679e+00 2.0901706262025559e+01 1 1 0
865 289 3 4.0999999999999998e-01 1.0571263146142712e+01 6.7057541119816699e+00 1.2054811827006116e+01 1 0 0
1606 536 3 4.0999999999999998e-01 1.0499123843204085e+01 4.8977873939139016e+00 2.0182378558245990e+01 0 1 0
5061 1687 3 4.0999999999999998e-01 2.3555275349478006e+00 8.3955621190171588e+00 2.0995596163631745e+01 0 1 0
4135 1379 3 4.0999999999999998e-01 4.1456105463992721e+00 4.8888296781608105e+00 2.1618871936444936e+01 1 1 0
564 188 3 4.0999999999999998e-01 9.0376524984260609e+00 8.8593169652092012e+00 2.4089144455138584e+01 0 0 1
1312 438 3 4.0999999999999998e-01 5.8415923559490892e+00 2.6659811004690526e+00 2.4590087424228713e+01 0 1 -1
6286 2096 3 4.0999999999999998e-01 1.9916704347066219e+00 1.6623831016767254e+00 2.1666537500344813e+01 1 0 1
5814 1938 3 4.0999999999999998e-01 3.2869988576370486e+00 2.3909695417504242e+00 2.4984223209892782e+01 1 1 0
2748 916 3 4.0999999999999998e-01 4.4896174162738713e+00 6.3596728947537864e+00 2.3140282996124984e+01 1 0 -1
441 147 3 4.0999999999999998e-01 9.0955376401741290e+00 6.6026687142119531e+00 2.1238829391631775e+01 1 1 0
107 36 4 -8.1999999999999995e-01 2.4082326832159637e+00 7.3809705375604961e+00 2.5936053343573317e+01 0 -1 0
4655 1552 4 -8.1999999999999995e-01 1.3433691514543127e+00 3.8539304311285663e+00 3.1333141200997709e+01 0 -1 -1
1088 363 4 -8.1999999999999995e-01 6.2540747136198540e+00 4.6842871112531865e+00 2.9440089518537587e+01 0 1 0
1011 337 3 4.0999999999999998e-01 6.0997995609815669e-01 6.1835930160365988e+00 2.8995482364209668e+01 0 0 0
537 179 3 4.0999999999999998e-01 5.9104644099986547e+00 6.5089654259007101e+00 2.6432160052343622e+01 0 0 -1
108 36 3 4.0999999999999998e-01 1.7939113409942309e+00 7.2219449345244753e+00 2.6692072514351395e+01 0 -1 0
4656 1552 3 4.0999999999999998e-01 2.2306976399061771e+00 3.7098400677744272e+00 3.0888089764767916e+01 0 -1 -1
4684 1562 3 4.0999999999999998e-01 5.5080215875492025e+00 9.7167966542418629e+00 2.1403341798555083e+01 0 0 1
7067 2356 4 -8.1999999999999995e-01 7.5324991754704023e+00 9.0599839972913732e-01 2.6398583380550406e+01 0 1 -1
5184 1728 3 4.0999999999999998e-01 3.4248168552994724e+00 4.4630476992879986e+00 2.4941736861001239e+01 -1 1 0
4591 1531 3 4.0999999999999998e-01 3.3718508082144458e+00 1.0055675164517870e+00 2.6762898019312473e+01 0 0 1
1313 438 4 -8.1999999999999995e-01 6.5405420267403924e+00 2.0506573842494054e+00 2.4230420905231480e+01 0 1 -1
5812 1938 3 4.0999999999999998e-01 2.0609054874519557e+00 2.6618888282045834e+00 2.3836228360398263e+01 1 1 0
5069 1690 4 -8.1999999999999995e-01 5.5607123298871279e+00 2.0160292879810982e-01 2.2521155332013606e+01 -1 0 1
3142 1048 3 4.0999999999999998e-01 1.6194030494229907e+00 2.9412811843502720e+00 2.7150046076072147e+01 0 2 1
563 188 4 -8.1999999999999995e-01 8.6607876161390962e+00 8.3762921809494255e+00 2.4878631314583131e+01 0 0 1
2548 850 3 4.0999999999999998e-01 3.9505882665795795e+00 3.2209771570333906e-01 3.1031798280946436e+01 0 0 -1
432 144 3 4.0999999999999998e-01 3.0811637840650006e+00 8.6526259740749403e+00 2.9959616060217961e+01 2 0 -1
2746 916 3 4.0999999999999998e-01 5.9053961843065137e+00 6.5465581730117695e+00 2.4154098280604750e+01 1 0 -1
440 147 4 -8.1999999999999995e-01 8.7977979351668250e+00 5.6878391009538687e+00 2.1462719319805949e+01 1 1 0
6922 2308 3 4.0999999999999998e-01 9.3702222405872817e+00 5.4317654074244279e+00 2.4255254503852161e+01 0 -1 1
313 105 3 4.0999999999999998e-01 6.7996406178830968e+00 9.4460068749631994e+00 2.9960422844451227e+01 0 0 -1
4137 1379 3 4.0999999999999998e-01 3.1599343343760578e+00 4.1433762211591967e+00 2.2827103472786579e+01 1 1 0
4929 1643 3 4.0999999999999998e-01 9.4453442963647110e+00 1.0483501983363023e+01 2.2373858337679099e+01 0 0 -1
6923 2308 4 -8.1999999999999995e-01 1.0262919493826862e+01 5.8193745054380122e+00 2.4543543450509986e+01 0 -1 1
1009 337 3 4.0999999999999998e-01 1.4116248703283560e+00 7.5927234072247538e+00 2.9177449379569904e+01 0 0 0
5182 1728 3 4.0999999999999998e-01 2.5020790665402215e+00 4.6694856771474544e+00 2.6421400506685082e+01 -1 1 0
2549 850 4 -8.1999999999999995e-01 4.8290084974112446e+00 3.6543186183646703e-01 3.0435887797380794e+01 0 0 -1
7248 2416 3 4.0999999999999998e-01 4.8054108425898079e+00 7.4191077237456975e+00 2.8899602833464538e+01 0 0 0
7348 2450 5 -1.0410950000000001e+00 3.0428487202399195e+00 1.0302093617110636e+01 2.9308888034265660e+01 1 0 0
7247 2416 4 -8.1999999999999995e-01 5.4263124880668334e+00 7.4274233217537393e+00 2.8086550943187451e+01 0 0 0
1695 565 3 4.0999999999999998e-01 6.2980702992852100e+00 3.0959567914188155e+00 2.8745107266176667e+01 1 0 0
3682 1228 3 4.0999999999999998e-01 8.1781646386434463e+00 9.1700231970746824e+00 2.7964433444187751e+01 0 1 -1
3684 1228 3 4.0999999999999998e-01 8.6822194460072257e+00 9.0736636731034253e+00 2.6404254883327507e+01 0 1 -1
1791 597 3 4.0999999999999998e-01 3.5844128636784350e-01 1.2771911443476032e+00 2.3495979929135714e+01 0 0 0
4686 1562 3 4.0999999999999998e-01 5.9760426820732615e+00 8.5182039615405074e+00 2.2555949772549283e+01 0 0 1
535 179 3 4.0999999999999998e-01 4.7984629452577261e+00 5.4269743131115868e+00 2.5943335777002584e+01 0 0 -1