LAMMPS data file. CGCMM style. atom_style full generated by VMD/TopoTools v1.7 on Tue Jul 16 11:18:28 CEST 2019
 7349 atoms
 4899 bonds
 2451 angles
 0 dihedrals
 1 impropers
 5 atom types
 2 bond types
 2 angle types
 0 dihedral types
 1 improper types
 0.000500 42.000500  xlo xhi
 0.000000 42.000000  ylo yhi
 0.000000 42.000000  zlo zhi

# Pair Coeffs
#
# 1  C4
# 2  Ca
# 3  H2
# 4  O2
# 5  O4

# Bond Coeffs
#
# 1  C4-O4
# 2  H2-O2

# Angle Coeffs
#
# 1  H2-O2-H2
# 2  O4-C4-O4

# Improper Coeffs
#
# 1  O4-O4-C4-O4

 Masses

 1 12.010700 # C4
 2 40.077999 # Ca
 3 1.007940 # H2
 4 15.999400 # O2
 5 15.999400 # O4

 Atoms # full

1 1 3 0.000000 3.013000 36.152000 34.273998 # H2 HOH
2 1 4 0.000000 3.958000 36.002998 34.355000 # O2 HOH
3 1 3 0.000000 4.061000 35.057999 34.220001 # H2 HOH
4 2 3 0.000000 28.770000 3.504000 13.846000 # H2 HOH
5 2 4 0.000000 29.448999 2.826000 13.833000 # O2 HOH
6 2 3 0.000000 30.184000 3.236000 13.371000 # H2 HOH
7 3 3 0.000000 15.235000 30.153000 36.174000 # H2 HOH
8 3 4 0.000000 15.430000 31.041000 35.866001 # O2 HOH
9 3 3 0.000000 16.316000 31.216000 36.192001 # H2 HOH
10 4 3 0.000000 6.711000 6.128000 11.974000 # H2 HOH
11 4 4 0.000000 7.191000 5.878000 11.181000 # O2 HOH
12 4 3 0.000000 6.507000 5.594000 10.570000 # H2 HOH
13 5 3 0.000000 7.708000 2.360000 16.356001 # H2 HOH
14 5 4 0.000000 8.066000 3.125000 15.899000 # O2 HOH
15 5 3 0.000000 7.296000 3.661000 15.695000 # H2 HOH
16 6 3 0.000000 2.402000 7.463000 11.813000 # H2 HOH
17 6 4 0.000000 2.271000 6.529000 11.632000 # O2 HOH
18 6 3 0.000000 2.685000 6.393000 10.777000 # H2 HOH
19 7 3 0.000000 38.918999 8.725000 24.381001 # H2 HOH
20 7 4 0.000000 38.742001 9.351000 25.086000 # O2 HOH
21 7 3 0.000000 38.464001 10.150000 24.631001 # H2 HOH
22 8 3 0.000000 17.593000 21.378000 20.556999 # H2 HOH
23 8 4 0.000000 16.788000 21.899000 20.584999 # O2 HOH
24 8 3 0.000000 16.087999 21.263000 20.416000 # H2 HOH
25 9 3 0.000000 8.069000 25.889000 1.086000 # H2 HOH
26 9 4 0.000000 7.684000 25.254000 1.694000 # O2 HOH
27 9 3 0.000000 7.955000 24.400999 1.348000 # H2 HOH
28 10 3 0.000000 21.540001 15.828000 14.964000 # H2 HOH
29 10 4 0.000000 20.650000 15.478000 14.877000 # O2 HOH
30 10 3 0.000000 20.608000 14.772000 15.526000 # H2 HOH
31 11 3 0.000000 1.149000 14.449000 2.704000 # H2 HOH
32 11 4 0.000000 0.936000 15.221000 2.174000 # O2 HOH
33 11 3 0.000000 0.000000 15.126000 1.983000 # H2 HOH
34 12 3 0.000000 6.248000 33.032001 15.296000 # H2 HOH
35 12 4 0.000000 6.627000 32.952000 16.174000 # O2 HOH
36 12 3 0.000000 6.208000 32.171001 16.542999 # H2 HOH
37 13 3 0.000000 27.524000 27.163000 32.066002 # H2 HOH
38 13 4 0.000000 27.268000 26.356001 31.613001 # O2 HOH
39 13 3 0.000000 27.735001 25.660999 32.084000 # H2 HOH
40 14 3 0.000000 20.070999 14.994000 32.088001 # H2 HOH
41 14 4 0.000000 20.605000 15.492000 31.465000 # O2 HOH
42 14 3 0.000000 21.021000 14.821000 30.919001 # H2 HOH
43 15 3 0.000000 0.231000 14.497000 13.118000 # H2 HOH
44 15 4 0.000000 0.659000 15.350000 13.015000 # O2 HOH
45 15 3 0.000000 1.265000 15.402000 13.758000 # H2 HOH
46 16 3 0.000000 18.857000 3.152000 13.508000 # H2 HOH
47 16 4 0.000000 19.656000 3.551000 13.862000 # O2 HOH
48 16 3 0.000000 20.364000 2.985000 13.545000 # H2 HOH
49 17 3 0.000000 27.157000 26.223000 21.709999 # H2 HOH
50 17 4 0.000000 26.233999 25.958000 21.691999 # O2 HOH
51 17 3 0.000000 25.750000 26.787001 21.680000 # H2 HOH
52 18 3 0.000000 41.999001 14.802000 30.841999 # H2 HOH
53 18 4 0.000000 41.991001 15.713000 30.539000 # O2 HOH
54 18 3 0.000000 41.113998 15.832000 30.167000 # H2 HOH
55 19 3 0.000000 31.031000 0.918000 3.970000 # H2 HOH
56 19 4 0.000000 31.919001 0.943000 3.607000 # O2 HOH
57 19 3 0.000000 32.479000 0.646000 4.328000 # H2 HOH
58 20 3 0.000000 21.945000 11.324000 9.944000 # H2 HOH
59 20 4 0.000000 22.468000 11.036000 9.193000 # O2 HOH
60 20 3 0.000000 21.874001 11.119000 8.444000 # H2 HOH
61 21 3 0.000000 16.087000 7.199000 21.466999 # H2 HOH
62 21 4 0.000000 16.215000 7.599000 22.330999 # O2 HOH
63 21 3 0.000000 15.370000 7.487000 22.771999 # H2 HOH
64 22 3 0.000000 7.986000 6.656000 20.212999 # H2 HOH
65 22 4 0.000000 8.388000 6.812000 19.356001 # O2 HOH
66 22 3 0.000000 7.732000 7.323000 18.875000 # H2 HOH
67 23 3 0.000000 12.631000 14.196000 15.963000 # H2 HOH
68 23 4 0.000000 11.692000 14.392000 15.980000 # O2 HOH
69 23 3 0.000000 11.646000 15.309000 16.261000 # H2 HOH
70 24 3 0.000000 25.858999 25.296000 11.254000 # H2 HOH
71 24 4 0.000000 26.230000 25.106001 12.118000 # O2 HOH
72 24 3 0.000000 25.774000 24.311001 12.402000 # H2 HOH
73 25 3 0.000000 20.934000 28.836000 15.890000 # H2 HOH
74 25 4 0.000000 21.132000 27.896999 15.861000 # O2 HOH
75 25 3 0.000000 21.052999 27.610001 16.773001 # H2 HOH
76 26 3 0.000000 32.974998 27.202999 29.424999 # H2 HOH
77 26 4 0.000000 32.985001 27.980000 29.989000 # O2 HOH
78 26 3 0.000000 33.252998 28.694000 29.406000 # H2 HOH
79 27 3 0.000000 14.100000 9.415000 13.026000 # H2 HOH
80 27 4 0.000000 14.803000 8.824000 13.306000 # O2 HOH
81 27 3 0.000000 15.237000 8.569000 12.489000 # H2 HOH
82 28 3 0.000000 22.242001 36.401001 41.993000 # H2 HOH
83 28 4 0.000000 22.000999 35.633999 41.467999 # O2 HOH
84 28 3 0.000000 21.132000 35.388000 41.792000 # H2 HOH
85 29 3 0.000000 28.156000 38.097000 36.451000 # H2 HOH
86 29 4 0.000000 27.389000 38.632999 36.667999 # O2 HOH
87 29 3 0.000000 26.645000 38.132999 36.323002 # H2 HOH
88 30 3 0.000000 37.221001 37.164001 33.147999 # H2 HOH
89 30 4 0.000000 36.837002 36.284000 33.174000 # O2 HOH
90 30 3 0.000000 35.890999 36.439999 33.229000 # H2 HOH
91 31 3 0.000000 38.820000 27.271000 14.952000 # H2 HOH
92 31 4 0.000000 39.056000 26.357000 14.776000 # O2 HOH
93 31 3 0.000000 38.233002 25.948999 14.499000 # H2 HOH
94 32 3 0.000000 34.418999 3.089000 3.467000 # H2 HOH
95 32 4 0.000000 33.548000 2.854000 3.795000 # O2 HOH
96 32 3 0.000000 32.948002 3.406000 3.288000 # H2 HOH
97 33 3 0.000000 30.413000 12.810000 2.375000 # H2 HOH
98 33 4 0.000000 30.784000 13.694000 2.405000 # O2 HOH
99 33 3 0.000000 31.511999 13.626000 3.027000 # H2 HOH
100 34 3 0.000000 32.853001 32.083000 23.197001 # H2 HOH
101 34 4 0.000000 33.368000 31.584000 23.834999 # O2 HOH
102 34 3 0.000000 33.641998 32.238998 24.482000 # H2 HOH
103 35 3 0.000000 32.136002 0.906000 24.216999 # H2 HOH
104 35 4 0.000000 31.230000 0.844000 23.903999 # O2 HOH
105 35 3 0.000000 30.915001 0.008000 24.254000 # H2 HOH
106 36 3 0.000000 12.891000 20.750000 11.369000 # H2 HOH
107 36 4 0.000000 12.308000 20.072001 11.021000 # O2 HOH
108 36 3 0.000000 11.653000 19.945999 11.712000 # H2 HOH
109 37 3 0.000000 11.811000 25.066000 12.370000 # H2 HOH
110 37 4 0.000000 11.502000 25.965000 12.240000 # O2 HOH
111 37 3 0.000000 12.302000 26.496000 12.253000 # H2 HOH
112 38 3 0.000000 7.643000 21.164000 17.879999 # H2 HOH
113 38 4 0.000000 7.215000 20.354000 17.591999 # O2 HOH
114 38 3 0.000000 7.335000 20.348000 16.639000 # H2 HOH
115 39 3 0.000000 36.758999 14.943000 13.761000 # H2 HOH
116 39 4 0.000000 37.626999 14.532000 13.788000 # O2 HOH
117 39 3 0.000000 37.750999 14.301000 14.711000 # H2 HOH
118 40 3 0.000000 21.948000 2.367000 25.552000 # H2 HOH
119 40 4 0.000000 21.018000 2.604000 25.528999 # O2 HOH
120 40 3 0.000000 20.576000 1.872000 25.966999 # H2 HOH
121 41 3 0.000000 39.676998 39.549999 28.507000 # H2 HOH
122 41 4 0.000000 38.921001 38.988998 28.695000 # O2 HOH
123 41 3 0.000000 39.306999 38.159000 28.981001 # H2 HOH
124 42 3 0.000000 36.012001 0.003000 27.386000 # H2 HOH
125 42 4 0.000000 35.875000 0.166000 26.448999 # O2 HOH
126 42 3 0.000000 35.640999 1.096000 26.402000 # H2 HOH
127 43 3 0.000000 7.107000 22.242001 9.688000 # H2 HOH
128 43 4 0.000000 7.446000 22.700001 8.915000 # O2 HOH
129 43 3 0.000000 8.156000 23.247999 9.257000 # H2 HOH
130 44 3 0.000000 16.506001 0.791000 18.773001 # H2 HOH
131 44 4 0.000000 16.518999 1.517000 18.145000 # O2 HOH
132 44 3 0.000000 17.115999 1.223000 17.454000 # H2 HOH
133 45 3 0.000000 16.268000 10.044000 11.199000 # H2 HOH
134 45 4 0.000000 17.224001 10.049000 11.288000 # O2 HOH
135 45 3 0.000000 17.457001 10.980000 11.292000 # H2 HOH
136 46 3 0.000000 40.662998 17.812000 29.320000 # H2 HOH
137 46 4 0.000000 39.803001 17.384001 29.312000 # O2 HOH
138 46 3 0.000000 39.428001 17.590000 30.172001 # H2 HOH
139 47 3 0.000000 12.458000 21.339001 15.644000 # H2 HOH
140 47 4 0.000000 12.084000 20.580999 16.100000 # O2 HOH
141 47 3 0.000000 11.635000 20.087000 15.410000 # H2 HOH
142 48 3 0.000000 25.323999 30.466000 30.861000 # H2 HOH
143 48 4 0.000000 24.975000 29.729000 30.355000 # O2 HOH
144 48 3 0.000000 24.759001 29.068001 31.017000 # H2 HOH
145 49 3 0.000000 30.506001 23.000999 27.863001 # H2 HOH
146 49 4 0.000000 30.992001 23.709999 27.434999 # O2 HOH
147 49 3 0.000000 31.485001 24.122999 28.148001 # H2 HOH
148 50 3 0.000000 22.910000 34.193001 22.079000 # H2 HOH
149 50 4 0.000000 23.797001 33.825001 22.061001 # O2 HOH
150 50 3 0.000000 24.372999 34.591999 22.084000 # H2 HOH
151 51 3 0.000000 10.636000 39.907001 8.543000 # H2 HOH
152 51 4 0.000000 11.510000 39.544998 8.381000 # O2 HOH
153 51 3 0.000000 11.386000 38.951000 7.637000 # H2 HOH
154 52 3 0.000000 13.494000 11.329000 33.091999 # H2 HOH
155 52 4 0.000000 14.012000 12.136000 33.122002 # O2 HOH
156 52 3 0.000000 14.822000 11.882000 33.570999 # H2 HOH
157 53 3 0.000000 14.872000 26.118999 5.888000 # H2 HOH
158 53 4 0.000000 15.756000 26.212000 6.248000 # O2 HOH
159 53 3 0.000000 16.238001 25.461000 5.892000 # H2 HOH
160 54 3 0.000000 36.441002 27.412001 32.951000 # H2 HOH
161 54 4 0.000000 36.425999 27.886000 32.117001 # O2 HOH
162 54 3 0.000000 36.047001 27.261000 31.495001 # H2 HOH
163 55 3 0.000000 42.000000 6.200000 9.348000 # H2 HOH
164 55 4 0.000000 41.537998 5.804000 8.606000 # O2 HOH
165 55 3 0.000000 41.964001 4.951000 8.490000 # H2 HOH
166 56 3 0.000000 9.812000 13.967000 40.374001 # H2 HOH
167 56 4 0.000000 9.572000 13.728000 39.474998 # O2 HOH
168 56 3 0.000000 8.702000 14.114000 39.352001 # H2 HOH
169 57 3 0.000000 13.198000 6.779000 20.997999 # H2 HOH
170 57 4 0.000000 12.772000 6.015000 21.393000 # O2 HOH
171 57 3 0.000000 12.989000 6.079000 22.326000 # H2 HOH
172 58 3 0.000000 4.358000 11.291000 13.822000 # H2 HOH
173 58 4 0.000000 4.063000 12.172000 13.583000 # O2 HOH
174 58 3 0.000000 3.156000 12.049000 13.295000 # H2 HOH
175 59 3 0.000000 41.631001 24.929001 28.974001 # H2 HOH
176 59 4 0.000000 41.646000 24.797001 28.024000 # O2 HOH
177 59 3 0.000000 40.729000 24.891001 27.756001 # H2 HOH
178 60 3 0.000000 15.499000 7.358000 15.799000 # H2 HOH
179 60 4 0.000000 16.424000 7.122000 15.899000 # O2 HOH
180 60 3 0.000000 16.480000 6.231000 15.547000 # H2 HOH
181 61 3 0.000000 19.934000 39.978001 23.752001 # H2 HOH
182 61 4 0.000000 20.868000 40.035999 23.966999 # O2 HOH
183 61 3 0.000000 20.930000 40.791000 24.556000 # H2 HOH
184 62 3 0.000000 31.291000 41.514999 5.397000 # H2 HOH
185 62 4 0.000000 31.879999 41.999001 4.813000 # O2 HOH
186 62 3 0.000000 31.778999 41.564999 3.962000 # H2 HOH
187 63 3 0.000000 15.050000 5.437000 39.515999 # H2 HOH
188 63 4 0.000000 15.289000 6.367000 39.513000 # O2 HOH
189 63 3 0.000000 14.446000 6.828000 39.518002 # H2 HOH
190 64 3 0.000000 5.944000 15.691000 10.091000 # H2 HOH
191 64 4 0.000000 5.958000 15.268000 9.229000 # O2 HOH
192 64 3 0.000000 6.770000 15.580000 8.825000 # H2 HOH
193 65 3 0.000000 10.751000 17.739000 8.976000 # H2 HOH
194 65 4 0.000000 9.999000 18.106001 8.507000 # O2 HOH
195 65 3 0.000000 9.725000 18.853001 9.045000 # H2 HOH
196 66 3 0.000000 13.421000 7.582000 34.299999 # H2 HOH
197 66 4 0.000000 14.195000 7.034000 34.153999 # O2 HOH
198 66 3 0.000000 14.612000 6.979000 35.016998 # H2 HOH
199 67 3 0.000000 23.868000 7.732000 40.445000 # H2 HOH
200 67 4 0.000000 23.827000 6.773000 40.449001 # O2 HOH
201 67 3 0.000000 22.888000 6.575000 40.442001 # H2 HOH
202 68 3 0.000000 36.226002 12.138000 37.769001 # H2 HOH
203 68 4 0.000000 36.735001 11.454000 37.327999 # O2 HOH
204 68 3 0.000000 37.641998 11.762000 37.381001 # H2 HOH
205 69 3 0.000000 13.070000 17.658001 37.741001 # H2 HOH
206 69 4 0.000000 14.008000 17.850000 37.813000 # O2 HOH
207 69 3 0.000000 14.436000 17.106001 37.382999 # H2 HOH
208 70 3 0.000000 5.998000 37.648998 5.847000 # H2 HOH
209 70 4 0.000000 6.020000 38.021000 6.732000 # O2 HOH
210 70 3 0.000000 6.945000 38.237000 6.874000 # H2 HOH
211 71 3 0.000000 15.076000 1.683000 39.805000 # H2 HOH
212 71 4 0.000000 14.355000 2.253000 39.528000 # O2 HOH
213 71 3 0.000000 14.581000 3.114000 39.887001 # H2 HOH
214 72 3 0.000000 6.974000 8.641000 0.715000 # H2 HOH
215 72 4 0.000000 7.275000 9.488000 0.379000 # O2 HOH
216 72 3 0.000000 6.828000 10.134000 0.929000 # H2 HOH
217 73 3 0.000000 35.387001 1.838000 15.048000 # H2 HOH
218 73 4 0.000000 34.470001 1.553000 15.046000 # O2 HOH
219 73 3 0.000000 34.452000 0.815000 14.432000 # H2 HOH
220 74 3 0.000000 31.125000 13.765000 29.910999 # H2 HOH
221 74 4 0.000000 30.312000 13.768000 29.399000 # O2 HOH
222 74 3 0.000000 29.990000 12.866000 29.461000 # H2 HOH
223 75 3 0.000000 20.115000 14.517000 12.410000 # H2 HOH
224 75 4 0.000000 20.993000 14.146000 12.291000 # O2 HOH
225 75 3 0.000000 21.228001 13.810000 13.159000 # H2 HOH
226 76 3 0.000000 19.757000 20.909000 29.882000 # H2 HOH
227 76 4 0.000000 20.426001 21.582001 29.740000 # O2 HOH
228 76 3 0.000000 20.121000 22.059999 28.965000 # H2 HOH
229 77 3 0.000000 18.419001 16.306999 7.285000 # H2 HOH
230 77 4 0.000000 17.482000 16.407000 7.467000 # O2 HOH
231 77 3 0.000000 17.427999 16.431000 8.425000 # H2 HOH
232 78 3 0.000000 41.016998 34.412998 13.340000 # H2 HOH
233 78 4 0.000000 40.084000 34.200001 13.274000 # O2 HOH
234 78 3 0.000000 39.646000 35.054001 13.265000 # H2 HOH
235 79 3 0.000000 41.248001 34.882999 31.702000 # H2 HOH
236 79 4 0.000000 40.374001 35.219002 31.493000 # O2 HOH
237 79 3 0.000000 39.819000 34.436001 31.464001 # H2 HOH
238 80 3 0.000000 6.809000 1.639000 13.651000 # H2 HOH
239 80 4 0.000000 6.209000 1.361000 12.955000 # O2 HOH
240 80 3 0.000000 6.725000 0.744000 12.430000 # H2 HOH
241 81 3 0.000000 30.424999 24.929001 13.458000 # H2 HOH
242 81 4 0.000000 30.886000 24.181000 13.072000 # O2 HOH
243 81 3 0.000000 30.253000 23.462000 13.118000 # H2 HOH
244 82 3 0.000000 39.209999 38.988998 26.402000 # H2 HOH
245 82 4 0.000000 39.424999 39.558998 25.660000 # O2 HOH
246 82 3 0.000000 39.294998 40.446999 25.997999 # H2 HOH
247 83 3 0.000000 30.841000 28.504999 7.191000 # H2 HOH
248 83 4 0.000000 29.999001 28.841999 6.877000 # O2 HOH
249 83 3 0.000000 29.909000 28.473000 5.996000 # H2 HOH
250 84 3 0.000000 27.280001 20.384001 39.250000 # H2 HOH
251 84 4 0.000000 26.820999 21.224001 39.323002 # O2 HOH
252 84 3 0.000000 25.997000 21.007000 39.765999 # H2 HOH
253 85 3 0.000000 9.863000 5.978000 2.343000 # H2 HOH
254 85 4 0.000000 10.753000 6.290000 2.521000 # O2 HOH
255 85 3 0.000000 10.867000 6.158000 3.465000 # H2 HOH
256 86 3 0.000000 3.183000 32.897999 11.917000 # H2 HOH
257 86 4 0.000000 2.814000 33.657001 12.373000 # O2 HOH
258 86 3 0.000000 2.045000 33.896999 11.851000 # H2 HOH
259 87 3 0.000000 3.097000 22.983000 1.735000 # H2 HOH
260 87 4 0.000000 2.643000 22.157000 1.915000 # O2 HOH
261 87 3 0.000000 1.766000 22.284000 1.546000 # H2 HOH
262 88 3 0.000000 3.562000 35.076000 5.090000 # H2 HOH
263 88 4 0.000000 4.268000 35.333000 4.492000 # O2 HOH
264 88 3 0.000000 3.812000 35.685001 3.724000 # H2 HOH
265 89 3 0.000000 7.585000 37.362000 4.315000 # H2 HOH
266 89 4 0.000000 8.478000 37.122002 4.574000 # O2 HOH
267 89 3 0.000000 8.645000 36.298000 4.110000 # H2 HOH
268 90 3 0.000000 26.371000 0.002000 28.038000 # H2 HOH
269 90 4 0.000000 26.968000 0.753000 28.035000 # O2 HOH
270 90 3 0.000000 26.388000 1.518000 28.032000 # H2 HOH
271 91 3 0.000000 26.278000 23.275000 6.221000 # H2 HOH
272 91 4 0.000000 26.100000 24.195999 6.016000 # O2 HOH
273 91 3 0.000000 26.851000 24.469999 5.485000 # H2 HOH
274 92 3 0.000000 41.493999 19.971001 18.806000 # H2 HOH
275 92 4 0.000000 41.729000 20.191999 17.902000 # O2 HOH
276 92 3 0.000000 41.998001 19.355000 17.516001 # H2 HOH
277 93 3 0.000000 37.702000 15.273000 41.624001 # H2 HOH
278 93 4 0.000000 37.271000 14.856000 40.874001 # O2 HOH
279 93 3 0.000000 37.240002 13.925000 41.105999 # H2 HOH
280 94 3 0.000000 30.851000 17.865999 41.931000 # H2 HOH
281 94 4 0.000000 30.063000 17.882999 41.383999 # O2 HOH
282 94 3 0.000000 29.375000 18.207001 41.970001 # H2 HOH
283 95 3 0.000000 21.452000 6.474000 12.697000 # H2 HOH
284 95 4 0.000000 21.320999 6.173000 13.599000 # O2 HOH
285 95 3 0.000000 20.629000 5.511000 13.531000 # H2 HOH
286 96 3 0.000000 36.577999 1.819000 2.489000 # H2 HOH
287 96 4 0.000000 37.289001 2.460000 2.548000 # O2 HOH
288 96 3 0.000000 37.924000 2.055000 3.144000 # H2 HOH
289 97 3 0.000000 24.941999 37.167999 25.941000 # H2 HOH
290 97 4 0.000000 25.480000 36.694000 25.302000 # O2 HOH
291 97 3 0.000000 25.566000 37.305000 24.566000 # H2 HOH
292 98 3 0.000000 25.193001 40.014999 5.315000 # H2 HOH
293 98 4 0.000000 25.247999 40.696999 5.988000 # O2 HOH
294 98 3 0.000000 24.400000 40.658001 6.436000 # H2 HOH
295 99 3 0.000000 16.642000 21.323000 26.489000 # H2 HOH
296 99 4 0.000000 17.443001 20.813999 26.635000 # O2 HOH
297 99 3 0.000000 17.127001 19.948999 26.907000 # H2 HOH
298 100 3 0.000000 3.861000 10.748000 5.415000 # H2 HOH
299 100 4 0.000000 4.048000 11.689000 5.437000 # O2 HOH
300 100 3 0.000000 4.982000 11.750000 5.220000 # H2 HOH
301 101 3 0.000000 41.994999 29.927000 24.580999 # H2 HOH
302 101 4 0.000000 41.591999 30.028999 25.445999 # O2 HOH
303 101 3 0.000000 41.533001 29.132999 25.787001 # H2 HOH
304 102 3 0.000000 21.083000 10.907000 20.122999 # H2 HOH
305 102 4 0.000000 21.777000 11.526000 19.885000 # O2 HOH
306 102 3 0.000000 21.343000 12.383000 19.893999 # H2 HOH
307 103 3 0.000000 0.724000 28.167999 9.755000 # H2 HOH
308 103 4 0.000000 0.153000 28.938000 9.801000 # O2 HOH
309 103 3 0.000000 0.760000 29.681999 9.817000 # H2 HOH
310 104 3 0.000000 37.831001 27.783001 11.239000 # H2 HOH
311 104 4 0.000000 37.796001 28.063999 12.156000 # O2 HOH
312 104 3 0.000000 37.801998 27.243999 12.656000 # H2 HOH
313 105 3 0.000000 16.591999 40.021000 24.195999 # H2 HOH
314 105 4 0.000000 17.049000 40.772999 24.580999 # O2 HOH
315 105 3 0.000000 16.908001 41.484001 23.952000 # H2 HOH
316 106 3 0.000000 6.968000 21.455000 25.559999 # H2 HOH
317 106 4 0.000000 6.153000 21.757999 25.968000 # O2 HOH
318 106 3 0.000000 6.059000 22.663000 25.664000 # H2 HOH
319 107 3 0.000000 39.484001 20.646999 34.076000 # H2 HOH
320 107 4 0.000000 39.262001 20.042000 33.366001 # O2 HOH
321 107 3 0.000000 39.773998 20.356001 32.617001 # H2 HOH
322 108 3 0.000000 20.298000 21.297001 0.824000 # H2 HOH
323 108 4 0.000000 19.393000 21.464001 1.093000 # O2 HOH
324 108 3 0.000000 19.225000 22.367001 0.814000 # H2 HOH
325 109 3 0.000000 29.811001 33.685001 1.008000 # H2 HOH
326 109 4 0.000000 29.334999 33.602001 0.178000 # O2 HOH
327 109 3 0.000000 29.006001 34.486000 0.003000 # H2 HOH
328 110 3 0.000000 15.174000 13.145000 4.640000 # H2 HOH
329 110 4 0.000000 16.091000 13.326000 4.421000 # O2 HOH
330 110 3 0.000000 16.469000 12.460000 4.250000 # H2 HOH
331 111 3 0.000000 32.793999 23.863001 38.862000 # H2 HOH
332 111 4 0.000000 33.556000 23.422001 39.243999 # O2 HOH
333 111 3 0.000000 33.408001 22.490999 39.060001 # H2 HOH
334 112 3 0.000000 32.861000 35.366001 37.438999 # H2 HOH
335 112 4 0.000000 32.793999 34.410000 37.381001 # O2 HOH
336 112 3 0.000000 31.854000 34.233002 37.467999 # H2 HOH
337 113 3 0.000000 15.266000 37.506001 19.072001 # H2 HOH
338 113 4 0.000000 14.455000 37.189999 18.667000 # O2 HOH
339 113 3 0.000000 14.420000 37.640999 17.820999 # H2 HOH
340 114 3 0.000000 2.880000 37.528000 17.393999 # H2 HOH
341 114 4 0.000000 3.627000 36.925999 17.388000 # O2 HOH
342 114 3 0.000000 3.228000 36.053001 17.353001 # H2 HOH
343 115 3 0.000000 29.867001 31.889999 10.201000 # H2 HOH
344 115 4 0.000000 29.243999 31.819000 10.928000 # O2 HOH
345 115 3 0.000000 28.775000 32.657001 10.921000 # H2 HOH
346 116 3 0.000000 12.278000 36.876999 18.981001 # H2 HOH
347 116 4 0.000000 11.514000 36.296001 19.000000 # O2 HOH
348 116 3 0.000000 10.780000 36.862000 18.749001 # H2 HOH
349 117 3 0.000000 31.070999 41.993000 38.294998 # H2 HOH
350 117 4 0.000000 31.999001 41.749001 38.306000 # O2 HOH
351 117 3 0.000000 31.993000 40.798000 38.435001 # H2 HOH
352 118 3 0.000000 16.441999 15.441000 10.765000 # H2 HOH
353 118 4 0.000000 16.853001 15.073000 11.550000 # O2 HOH
354 118 3 0.000000 17.417999 15.778000 11.874000 # H2 HOH
355 119 3 0.000000 5.111000 31.808001 7.085000 # H2 HOH
356 119 4 0.000000 5.220000 32.741001 6.889000 # O2 HOH
357 119 3 0.000000 6.170000 32.860001 6.816000 # H2 HOH
358 120 3 0.000000 26.517000 0.003000 13.243000 # H2 HOH
359 120 4 0.000000 27.309000 0.543000 13.194000 # O2 HOH
360 120 3 0.000000 27.936001 0.000000 12.711000 # H2 HOH
361 121 3 0.000000 7.638000 0.324000 31.775000 # H2 HOH
362 121 4 0.000000 8.095000 0.004000 32.556000 # O2 HOH
363 121 3 0.000000 9.024000 0.039000 32.319000 # H2 HOH
364 122 3 0.000000 3.171000 29.597000 22.073000 # H2 HOH
365 122 4 0.000000 2.424000 29.171000 21.646999 # O2 HOH
366 122 3 0.000000 1.864000 29.898001 21.367001 # H2 HOH
367 123 3 0.000000 2.653000 11.231000 11.044000 # H2 HOH
368 123 4 0.000000 1.914000 10.688000 10.761000 # O2 HOH
369 123 3 0.000000 1.201000 11.315000 10.615000 # H2 HOH
370 124 3 0.000000 0.024000 36.540001 37.214001 # H2 HOH
371 124 4 0.000000 0.013000 37.236000 36.554001 # O2 HOH
372 124 3 0.000000 0.759000 37.793999 36.785000 # H2 HOH
373 125 3 0.000000 1.239000 0.120000 30.209000 # H2 HOH
374 125 4 0.000000 0.979000 1.038000 30.308001 # O2 HOH
375 125 3 0.000000 0.097000 0.995000 30.684999 # H2 HOH
376 126 3 0.000000 40.946999 11.395000 5.427000 # H2 HOH
377 126 4 0.000000 41.208000 10.974000 6.249000 # O2 HOH
378 126 3 0.000000 40.648998 11.382000 6.913000 # H2 HOH
379 127 3 0.000000 13.031000 18.466000 16.371000 # H2 HOH
380 127 4 0.000000 13.194000 18.639999 17.301001 # O2 HOH
381 127 3 0.000000 12.334000 18.534000 17.716000 # H2 HOH
382 128 3 0.000000 40.316002 12.354000 31.384001 # H2 HOH
383 128 4 0.000000 39.757999 11.850000 30.788000 # O2 HOH
384 128 3 0.000000 39.478001 11.093000 31.309000 # H2 HOH
385 129 3 0.000000 31.730000 29.698000 39.474998 # H2 HOH
386 129 4 0.000000 32.651001 29.434999 39.412998 # O2 HOH
387 129 3 0.000000 32.622002 28.476000 39.374001 # H2 HOH
388 130 3 0.000000 10.761000 14.699000 26.524000 # H2 HOH
389 130 4 0.000000 10.886000 13.879000 27.007000 # O2 HOH
390 130 3 0.000000 11.468000 13.360000 26.448000 # H2 HOH
391 131 3 0.000000 41.973999 25.007999 2.831000 # H2 HOH
392 131 4 0.000000 41.999001 25.466000 1.988000 # O2 HOH
393 131 3 0.000000 41.115002 25.351999 1.630000 # H2 HOH
394 132 3 0.000000 17.368999 10.865000 14.892000 # H2 HOH
395 132 4 0.000000 17.502001 10.768000 13.946000 # O2 HOH
396 132 3 0.000000 16.618000 10.633000 13.596000 # H2 HOH
397 133 3 0.000000 30.603001 2.072000 8.397000 # H2 HOH
398 133 4 0.000000 31.431000 2.495000 8.637000 # O2 HOH
399 133 3 0.000000 32.084999 2.073000 8.075000 # H2 HOH
400 134 3 0.000000 30.283001 34.716999 26.461000 # H2 HOH
401 134 4 0.000000 29.337999 34.643002 26.613001 # O2 HOH
402 134 3 0.000000 29.034000 35.551998 26.665001 # H2 HOH
403 135 3 0.000000 26.066000 7.703000 20.278000 # H2 HOH
404 135 4 0.000000 25.896999 8.648000 20.312000 # O2 HOH
405 135 3 0.000000 26.684999 9.043000 19.931000 # H2 HOH
406 136 3 0.000000 8.460000 15.401000 10.363000 # H2 HOH
407 136 4 0.000000 8.826000 16.280001 10.237000 # O2 HOH
408 136 3 0.000000 8.058000 16.840000 10.106000 # H2 HOH
409 137 3 0.000000 38.560001 18.969000 28.429001 # H2 HOH
410 137 4 0.000000 39.410999 19.356001 28.212000 # O2 HOH
411 137 3 0.000000 39.249001 20.302000 28.211000 # H2 HOH
412 138 3 0.000000 29.840000 5.662000 27.712999 # H2 HOH
413 138 4 0.000000 29.416000 4.801000 27.733999 # O2 HOH
414 138 3 0.000000 28.476000 5.000000 27.731001 # H2 HOH
415 139 3 0.000000 27.270000 15.198000 16.323999 # H2 HOH
416 139 4 0.000000 27.573000 15.079000 17.226999 # O2 HOH
417 139 3 0.000000 27.011999 15.661000 17.745001 # H2 HOH
418 140 3 0.000000 40.597000 6.091000 27.507999 # H2 HOH
419 140 4 0.000000 40.158001 5.498000 28.122000 # O2 HOH
420 140 3 0.000000 40.053001 4.681000 27.629000 # H2 HOH
421 141 3 0.000000 27.579000 15.365000 34.180000 # H2 HOH
422 141 4 0.000000 26.844999 15.501000 34.783001 # O2 HOH
423 141 3 0.000000 26.683001 16.447001 34.750000 # H2 HOH
424 142 3 0.000000 30.485001 28.733999 35.133999 # H2 HOH
425 142 4 0.000000 29.712000 29.299000 35.070999 # O2 HOH
426 142 3 0.000000 29.955000 29.961000 34.418999 # H2 HOH
427 143 3 0.000000 37.300999 3.507000 5.827000 # H2 HOH
428 143 4 0.000000 38.118999 3.493000 6.330000 # O2 HOH
429 143 3 0.000000 38.132000 2.624000 6.737000 # H2 HOH
430 144 3 0.000000 22.763000 17.459000 21.419001 # H2 HOH
431 144 4 0.000000 22.473000 16.980000 20.639000 # O2 HOH
432 144 3 0.000000 22.047001 16.194000 20.989000 # H2 HOH
433 145 3 0.000000 22.613001 37.653000 32.367001 # H2 HOH
434 145 4 0.000000 22.674999 36.779999 32.761002 # O2 HOH
435 145 3 0.000000 21.886000 36.326000 32.457001 # H2 HOH
436 146 3 0.000000 38.139999 12.474000 39.409000 # H2 HOH
437 146 4 0.000000 37.887001 11.560000 39.557999 # O2 HOH
438 146 3 0.000000 38.713001 11.074000 39.513000 # H2 HOH
439 147 3 0.000000 26.889000 29.431000 40.200001 # H2 HOH
440 147 4 0.000000 26.169001 29.722000 39.634998 # O2 HOH
441 147 3 0.000000 25.599001 28.952999 39.563000 # H2 HOH
442 148 3 0.000000 35.903999 26.433001 29.382000 # H2 HOH
443 148 4 0.000000 35.497002 27.006001 28.728001 # O2 HOH
444 148 3 0.000000 35.252998 27.792000 29.222000 # H2 HOH
445 149 3 0.000000 38.303001 23.851000 5.952000 # H2 HOH
446 149 4 0.000000 39.210999 24.075001 6.166000 # O2 HOH
447 149 3 0.000000 39.729000 23.374001 5.764000 # H2 HOH
448 150 3 0.000000 13.417000 16.097000 41.015999 # H2 HOH
449 150 4 0.000000 12.525000 16.173000 41.362000 # O2 HOH
450 150 3 0.000000 12.391000 15.359000 41.852001 # H2 HOH
451 151 3 0.000000 1.552000 24.466000 15.861000 # H2 HOH
452 151 4 0.000000 2.429000 24.639999 16.211000 # O2 HOH
453 151 3 0.000000 2.329000 25.459999 16.702000 # H2 HOH
454 152 3 0.000000 22.476000 25.892000 22.620001 # H2 HOH
455 152 4 0.000000 23.316000 25.438999 22.726999 # O2 HOH
456 152 3 0.000000 23.816999 26.006001 23.318001 # H2 HOH
457 153 3 0.000000 29.874001 31.025999 20.705000 # H2 HOH
458 153 4 0.000000 28.978001 31.365999 20.641001 # O2 HOH
459 153 3 0.000000 28.538000 30.764000 20.038000 # H2 HOH
460 154 3 0.000000 19.478001 35.027000 4.874000 # H2 HOH
461 154 4 0.000000 20.024000 35.796001 5.057000 # O2 HOH
462 154 3 0.000000 19.393000 36.498001 5.232000 # H2 HOH
463 155 3 0.000000 35.648998 5.605000 37.852001 # H2 HOH
464 155 4 0.000000 35.785000 4.656000 37.908001 # O2 HOH
465 155 3 0.000000 34.900002 4.287000 37.867001 # H2 HOH
466 156 3 0.000000 12.030000 0.202000 14.488000 # H2 HOH
467 156 4 0.000000 12.945000 0.002000 14.697000 # O2 HOH
468 156 3 0.000000 13.175000 0.633000 15.383000 # H2 HOH
469 157 3 0.000000 37.111000 26.016001 34.943001 # H2 HOH
470 157 4 0.000000 38.068001 26.052999 35.006001 # O2 HOH
471 157 3 0.000000 38.300999 26.884001 34.585999 # H2 HOH
472 158 3 0.000000 14.592000 8.702000 1.186000 # H2 HOH
473 158 4 0.000000 14.772000 7.786000 0.962000 # O2 HOH
474 158 3 0.000000 14.808000 7.779000 0.003000 # H2 HOH
475 159 3 0.000000 3.888000 17.396999 10.827000 # H2 HOH
476 159 4 0.000000 4.471000 18.108000 10.553000 # O2 HOH
477 159 3 0.000000 4.263000 18.243000 9.626000 # H2 HOH
478 160 3 0.000000 3.545000 28.913000 24.582001 # H2 HOH
479 160 4 0.000000 3.009000 28.440001 23.941000 # O2 HOH
480 160 3 0.000000 2.216000 28.201000 24.426001 # H2 HOH
481 161 3 0.000000 7.427000 9.814000 24.162001 # H2 HOH
482 161 4 0.000000 8.085000 9.364000 24.695999 # O2 HOH
483 161 3 0.000000 7.747000 9.426000 25.591999 # H2 HOH
484 162 3 0.000000 4.262000 27.179001 35.271000 # H2 HOH
485 162 4 0.000000 3.887000 27.809999 34.652000 # O2 HOH
486 162 3 0.000000 4.608000 28.416000 34.465000 # H2 HOH
487 163 3 0.000000 32.030998 8.104000 16.025999 # H2 HOH
488 163 4 0.000000 32.696999 7.416000 16.098000 # O2 HOH
489 163 3 0.000000 32.192001 6.600000 16.127001 # H2 HOH
490 164 3 0.000000 24.139999 33.469002 11.970000 # H2 HOH
491 164 4 0.000000 23.915001 32.960999 11.187000 # O2 HOH
492 164 3 0.000000 23.464001 32.186001 11.529000 # H2 HOH
493 165 3 0.000000 14.812000 21.753000 31.913000 # H2 HOH
494 165 4 0.000000 15.675000 21.792000 32.331001 # O2 HOH
495 165 3 0.000000 16.243000 22.188000 31.667000 # H2 HOH
496 166 3 0.000000 10.235000 14.141000 9.512000 # H2 HOH
497 166 4 0.000000 11.098000 14.561000 9.528000 # O2 HOH
498 166 3 0.000000 10.978000 15.327000 10.094000 # H2 HOH
499 167 3 0.000000 40.819000 4.705000 13.692000 # H2 HOH
500 167 4 0.000000 39.951000 4.534000 13.321000 # O2 HOH
501 167 3 0.000000 39.721001 5.350000 12.869000 # H2 HOH
502 168 3 0.000000 39.287998 22.827999 12.598000 # H2 HOH
503 168 4 0.000000 40.137001 22.427999 12.396000 # O2 HOH
504 168 3 0.000000 40.682999 23.163000 12.108000 # H2 HOH
505 169 3 0.000000 15.212000 34.181000 11.731000 # H2 HOH
506 169 4 0.000000 15.860000 34.841000 11.986000 # O2 HOH
507 169 3 0.000000 15.355000 35.488998 12.482000 # H2 HOH
508 170 3 0.000000 41.244999 15.506000 34.115002 # H2 HOH
509 170 4 0.000000 41.987999 15.403000 33.514999 # O2 HOH
510 170 3 0.000000 41.730999 15.895000 32.731998 # H2 HOH
511 171 3 0.000000 20.160000 12.033000 41.355999 # H2 HOH
512 171 4 0.000000 19.782000 11.155000 41.445999 # O2 HOH
513 171 3 0.000000 18.851999 11.275000 41.241001 # H2 HOH
514 172 3 0.000000 14.546000 23.940001 7.511000 # H2 HOH
515 172 4 0.000000 13.771000 23.815001 8.063000 # O2 HOH
516 172 3 0.000000 14.049000 23.174999 8.722000 # H2 HOH
517 173 3 0.000000 15.212000 13.785000 36.658001 # H2 HOH
518 173 4 0.000000 15.690000 14.546000 36.995998 # O2 HOH
519 173 3 0.000000 15.324000 15.290000 36.511002 # H2 HOH