LAMMPS data file via write_data, version 5 Jun 2019, timestep = 20000000

7349 atoms
5 atom types
4899 bonds
2 bond types
2451 angles
2 angle types
1 impropers
1 improper types

1.5519297081455363e-01 4.1845807029189409e+01 xlo xhi
1.5469297081455124e-01 4.1845307029189406e+01 ylo yhi
1.5469297081455124e-01 4.1845307029189406e+01 zlo zhi

#Masses
#
#1 12.01
#2 40.08
#3 1.01
#4 16
#5 16
#
#Bond Coeffs # harmonic
#
#1 20.4246 1.3042
#2 22.965 1.012

Atoms # full

1720 574 3 4.0999999999999998e-01 4.0280308374960887e+00 8.3710490710726237e-01 1.0511525830477646e+01 0 -3 -3
4460 1487 4 -8.1999999999999995e-01 7.8466549320123296e+00 7.1780014111973065e+00 4.2058955911598872e+00 -4 -1 4
2759 920 4 -8.1999999999999995e-01 5.8248483254813443e-01 4.2436755505921635e+00 3.2999465677093718e+00 1 -4 -1
6038 2013 4 -8.1999999999999995e-01 8.8419122207613530e+00 5.6706840488891670e+00 2.0392174611080871e+00 -2 4 1
2758 920 3 4.0999999999999998e-01 1.3766622316648687e+00 3.8834941635353584e+00 2.7165104031454352e+00 1 -4 -1
1338 446 3 4.0999999999999998e-01 5.6271513549520362e+00 9.9272263844494368e+00 2.9088072526917395e+00 -1 -3 3
3491 1164 4 -8.1999999999999995e-01 9.0334426796056313e+00 9.2191684228628357e-01 7.7157307419547183e-01 -3 -6 -1
2882 961 4 -8.1999999999999995e-01 5.5433145626734459e-01 1.0513398794591806e+01 6.2784757294958764e+00 -3 -3 5
4482 1494 3 4.0999999999999998e-01 6.2097746650206593e+00 8.5701835432313498e+00 8.6192510614458389e+00 0 -4 1
510 170 3 4.0999999999999998e-01 5.4964234793322317e+00 5.1911289484700935e+00 2.8857068664729586e+00 4 2 1
4808 1603 4 -8.1999999999999995e-01 2.9424043013460399e+00 8.8259302039685235e+00 7.5742564767574394e-01 5 2 1
4859 1620 4 -8.1999999999999995e-01 5.1706346136526751e+00 1.0213060096010381e+01 1.3650703091461942e+00 6 4 1
4036 1346 3 4.0999999999999998e-01 6.0766981455603897e-01 6.0781225183535783e+00 3.8947252802109609e+00 0 1 0
1957 653 3 4.0999999999999998e-01 1.5695758554061554e+00 2.8671362249044128e+00 8.7335943576477728e+00 4 3 0
4560 1520 3 4.0999999999999998e-01 6.1056697405950668e+00 6.9382902101432613e+00 1.2164139780053604e+00 0 -4 -1
4865 1622 4 -8.1999999999999995e-01 3.9726831081913749e+00 8.6265821581523312e+00 9.4284207379419591e+00 5 -2 0
4150 1384 3 4.0999999999999998e-01 1.2451651003488666e+00 5.6794159688425445e+00 6.5591686008449885e+00 0 -3 2
2802 934 3 4.0999999999999998e-01 6.6274435798979239e+00 1.4995730674664698e+00 1.2591494703527051e+00 1 0 -2
1725 575 3 4.0999999999999998e-01 3.9885049077422767e+00 4.3230675023589464e+00 5.9191352794386010e+00 1 2 -2
564 188 3 4.0999999999999998e-01 9.3179051253070444e+00 2.3798019459728703e+00 5.9991810415113802e+00 2 -3 -2
3344 1115 4 -8.1999999999999995e-01 8.4290094558977380e+00 6.3279125705966885e+00 8.9953324942288546e+00 5 1 -3
1336 446 3 4.0999999999999998e-01 4.8804144083901333e+00 9.0502121693944542e+00 3.9577138744668163e+00 -1 -3 3
7021 2341 3 4.0999999999999998e-01 2.5836019483682415e+00 8.8370692566188218e+00 4.4375319467124328e+00 3 -5 3
3345 1115 3 4.0999999999999998e-01 8.1508252743660279e+00 6.6440931540008146e+00 8.0221328622926062e+00 5 1 -3
4559 1520 4 -8.1999999999999995e-01 5.7793451936367477e+00 6.7761239814369452e+00 2.1666925690562717e+00 0 -4 -1
6745 2249 3 4.0999999999999998e-01 9.3888939964024267e+00 9.8510530794103026e+00 5.2975890935466783e+00 -2 -3 -2
1959 653 3 4.0999999999999998e-01 8.3235251607820349e-01 2.9862482916025788e+00 7.2018830728611869e+00 4 3 0
7022 2341 4 -8.1999999999999995e-01 3.3820552808416493e+00 8.3065809196575167e+00 4.2863381316488578e+00 3 -5 3
1722 574 3 4.0999999999999998e-01 4.5419019079163778e+00 7.5018675058936990e-01 8.9509887883475390e+00 0 -3 -3
2801 934 4 -8.1999999999999995e-01 6.4007862076944653e+00 2.4054971540536370e+00 1.7392136630650132e+00 1 0 -2
4127 1376 4 -8.1999999999999995e-01 4.0186948505196263e+00 9.4721313769232118e+00 6.6560828170572091e+00 5 0 2
7225 2409 3 4.0999999999999998e-01 3.5830321748293765e+00 1.8770323731016041e+00 7.9048107298090287e+00 -3 -2 2
4211 1404 4 -8.1999999999999995e-01 1.0258054033416634e+01 4.4800544908475768e+00 7.6526948556855015e+00 -1 -3 -3
5635 1879 3 4.0999999999999998e-01 8.3187262903686243e-01 4.1157251218614803e+00 4.8582987171123175e+00 -2 -1 3
3049 1017 3 4.0999999999999998e-01 7.5006775569370205e+00 5.5880589164364096e+00 1.0083900047232195e+01 -6 -5 0
5488 1830 3 4.0999999999999998e-01 3.9402228278473306e+00 6.2484323371442985e+00 2.1712003201969665e+00 1 3 -3
6747 2249 3 4.0999999999999998e-01 9.0924220792672692e+00 8.2574023324917221e+00 4.9605190284657281e+00 -2 -3 -2
7227 2409 3 4.0999999999999998e-01 4.1465940485539337e+00 2.6279420993798492e+00 6.4782468853600994e+00 -3 -2 2
1723 575 3 4.0999999999999998e-01 4.2950004313787753e+00 3.6606692391611251e+00 4.4319913454970310e+00 1 2 -2
3497 1166 4 -8.1999999999999995e-01 9.4782904268243904e+00 9.0357885449823403e+00 9.7325399390181797e+00 4 0 0
4866 1622 3 4.0999999999999998e-01 3.7666286294943743e+00 8.6566362556105183e+00 8.4241566774349703e+00 5 -2 0
4678 1560 3 4.0999999999999998e-01 3.6864300972580031e+00 6.2334614031951237e+00 7.1338927912395249e+00 -1 -1 2
4459 1487 3 4.0999999999999998e-01 7.9375578476246433e+00 6.5780449003300232e+00 3.3363360090635323e+00 -4 -1 4
7205 2402 4 -8.1999999999999995e-01 1.0076264280443445e+01 2.8785217221856554e+00 1.0067034490712846e+01 1 -2 0
5621 1874 4 -8.1999999999999995e-01 2.7114166511187459e+00 3.5800786260978978e+00 1.3570286502996167e+00 2 6 0
4057 1353 3 4.0999999999999998e-01 1.0237418741186564e+01 3.5136069928282350e+00 3.1474672546517728e+00 7 4 0
4210 1404 3 4.0999999999999998e-01 9.9691463947607737e+00 5.1484045300513817e+00 8.3875004649688840e+00 -1 -3 -3
5622 1874 3 4.0999999999999998e-01 2.3267185547852067e+00 3.4919396433258831e+00 4.0077983561245656e-01 2 6 0
3496 1166 3 4.0999999999999998e-01 8.4718009143498580e+00 9.1176604920124831e+00 9.7372854725494289e+00 4 0 0
4558 1520 3 4.0999999999999998e-01 5.9334290088082540e+00 7.6415329907136513e+00 2.7240307980290921e+00 0 -4 -1
566 189 4 -8.1999999999999995e-01 2.9388239420217928e+00 3.7135182274727359e+00 9.0257661307838291e+00 5 4 -2
1724 575 4 -8.1999999999999995e-01 3.6466445145758910e+00 3.7249940753580679e+00 5.1782231729991723e+00 1 2 -2
562 188 3 4.0999999999999998e-01 9.0766681143266457e+00 3.4464780119383147e+00 7.1356395032749917e+00 2 -3 -2
4858 1620 3 4.0999999999999998e-01 4.2344793135027583e+00 9.9723183601305756e+00 1.0135236459152703e+00 6 4 1
6168 2056 3 4.0999999999999998e-01 2.5731943873850609e+00 1.9724605501129593e+00 1.8753034809588025e+00 2 3 3
7023 2341 3 4.0999999999999998e-01 3.0815926909408122e+00 7.4844511766888635e+00 3.7441861780386629e+00 3 -5 3
2883 961 3 4.0999999999999998e-01 5.0569603062173718e-01 9.7417175180771345e+00 6.9376696350286782e+00 -3 -3 5
5485 1829 3 4.0999999999999998e-01 6.8325602740025166e+00 4.9391271607112088e+00 5.1308856418656843e+00 -3 1 2
511 171 3 4.0999999999999998e-01 1.0105223191202432e+01 1.0481831087363556e+01 9.0474246710452455e+00 4 4 -5
6015 2005 3 4.0999999999999998e-01 7.2676913278886088e+00 1.5067404128437585e+00 1.0385635508109027e+01 2 -2 2
4152 1384 3 4.0999999999999998e-01 1.4337193578795202e+00 7.0416451233535877e+00 5.8574341031097852e+00 0 -3 2
508 170 3 4.0999999999999998e-01 6.2092256480438159e+00 3.6990869652798612e+00 2.8815482061347755e+00 4 2 1
1721 574 4 -8.1999999999999995e-01 3.8294259534103889e+00 4.6038982047449833e-01 9.6097105673102359e+00 0 -3 -3
4807 1603 3 4.0999999999999998e-01 3.0580343934338368e+00 7.9844286045149246e+00 1.3975190802778834e+00 5 2 1
7206 2402 3 4.0999999999999998e-01 1.0147442307496803e+01 3.2997315269960890e+00 9.1176766412329826e+00 1 -2 0
5490 1830 3 4.0999999999999998e-01 2.4816134504305070e+00 5.6999839539607713e+00 1.5122761220831924e+00 1 3 -3
3159 1053 3 4.0999999999999998e-01 7.9358755635034717e+00 9.9902579698888498e+00 7.6926634578352426e-01 0 1 2
4461 1487 3 4.0999999999999998e-01 6.9150006939609394e+00 6.9907087259064644e+00 4.5064071449680787e+00 -4 -1 4
5487 1829 3 4.0999999999999998e-01 7.5363328347758500e+00 4.0034675451995616e+00 6.2765749296555802e+00 -3 1 2
5636 1879 4 -8.1999999999999995e-01 9.9823111556039179e-01 3.9151571010557662e+00 5.8490940919703309e+00 -2 -1 3
6037 2013 3 4.0999999999999998e-01 9.8568849184537459e+00 5.7110341309286659e+00 2.2817097965786224e+00 -2 4 1
4680 1560 3 4.0999999999999998e-01 5.2383433206798591e+00 5.5108009739714108e+00 7.2958358022537944e+00 -1 -1 2
4481 1494 4 -8.1999999999999995e-01 6.9033570520030070e+00 9.2607537297377132e+00 8.9587551992171477e+00 0 -4 1
1839 613 3 4.0999999999999998e-01 7.4049312551466242e+00 1.4817865819213687e+00 6.4391031185002685e+00 -8 -1 2
5637 1879 3 4.0999999999999998e-01 2.0217370644648516e+00 3.8208095510492157e+00 5.7344142223386774e+00 -2 -1 3
4860 1620 3 4.0999999999999998e-01 5.7372426920729849e+00 1.0300737379688151e+01 5.1216667183717257e-01 6 4 1
6495 2165 3 4.0999999999999998e-01 7.1019477376556850e+00 1.0321295150489496e+01 4.4913564971397593e+00 3 -2 -1
4480 1494 3 4.0999999999999998e-01 6.8410187189095097e+00 1.0199610668674856e+01 8.5027720267058946e+00 0 -4 1
3343 1115 3 4.0999999999999998e-01 8.4160154246593475e+00 7.2487106437491065e+00 9.4944410604857588e+00 5 1 -3
5489 1830 4 -8.1999999999999995e-01 2.9871197410960124e+00 6.5264529054747538e+00 1.9443033480209084e+00 1 3 -3
563 188 4 -8.1999999999999995e-01 8.5864108522677185e+00 2.6600361994322195e+00 6.6782504724681058e+00 2 -3 -2
7226 2409 4 -8.1999999999999995e-01 4.2839249705073241e+00 1.8834369873808345e+00 7.1330918355669581e+00 -3 -2 2
4058 1353 4 -8.1999999999999995e-01 9.5205098509762038e+00 2.7852052106493059e+00 3.2593713010776160e+00 7 4 0
1337 446 4 -8.1999999999999995e-01 5.7415493593634848e+00 9.5631768265595358e+00 3.8661333875927935e+00 -1 -3 3
565 189 3 4.0999999999999998e-01 3.5346729378220041e+00 4.2862004003975809e+00 8.3807461203699756e+00 5 4 -2
6167 2056 4 -8.1999999999999995e-01 2.2578393702119599e+00 1.1671301196801132e+00 2.4134222042522278e+00 2 3 3
6039 2013 3 4.0999999999999998e-01 8.6936690192612982e+00 5.8374684392046241e+00 1.0810958943406452e+00 -2 4 1
4679 1560 4 -8.1999999999999995e-01 4.2508205879607015e+00 5.3655283877171707e+00 7.2102395316645413e+00 -1 -1 2
5486 1829 4 -8.1999999999999995e-01 6.8682812996232414e+00 4.7042506025624267e+00 6.1293138060072678e+00 -3 1 2
1115 372 4 -8.1999999999999995e-01 9.7880614868519500e-01 8.6867795144420583e+00 8.1373813376350093e+00 -2 -1 0
4126 1376 3 4.0999999999999998e-01 3.7114730472879942e+00 8.9639408655914803e+00 5.8044315351677342e+00 5 0 2
509 170 4 -8.1999999999999995e-01 5.6992036370166552e+00 4.4161072743704439e+00 3.4879761024070208e+00 4 2 1
1837 613 3 4.0999999999999998e-01 5.7368521975181457e+00 1.2613097396504875e+00 6.6108099897724424e+00 -8 -1 2
1447 483 3 4.0999999999999998e-01 1.0251598586291745e+01 9.6000634801606175e+00 1.9192494783806393e+00 0 2 5
4151 1384 4 -8.1999999999999995e-01 1.6391801419589962e+00 6.5722508621127895e+00 6.7506907310021349e+00 0 -3 2
567 189 3 4.0999999999999998e-01 2.5817652213528728e+00 4.4325975108296785e+00 9.7017940809547856e+00 5 4 -2
3490 1164 3 4.0999999999999998e-01 9.0553269359256277e+00 1.5562145060991281e+00 1.5899739940272377e+00 -3 -6 -1
5215 1739 3 4.0999999999999998e-01 1.3392197734561562e+00 7.8732994291009717e-01 7.3808244661113713e+00 0 5 1
6746 2249 4 -8.1999999999999995e-01 9.8091853516664482e+00 8.9074056295112101e+00 5.2326807234030337e+00 -2 -3 -2
1114 372 3 4.0999999999999998e-01 1.3611431821431097e+00 7.8007631696866371e+00 7.7898467646356861e+00 -2 -1 0
1838 613 4 -8.1999999999999995e-01 6.5943467874971908e+00 8.9661497055103956e-01 6.1370838573128577e+00 -8 -1 2
1449 483 3 4.0999999999999998e-01 9.1680680187596035e+00 8.4785038572805416e+00 2.3598627862433488e+00 0 2 5
1958 653 4 -8.1999999999999995e-01 7.7218409286349610e-01 2.5227419633335590e+00 8.1268070193753825e+00 4 3 0
4037 1346 4 -8.1999999999999995e-01 4.4990523360180151e-01 7.0178778955298391e+00 4.3574709271891479e+00 0 1 0
4059 1353 3 4.0999999999999998e-01 8.6465257269592914e+00 3.3244185846216978e+00 3.3173311837986317e+00 7 4 0
1448 483 4 -8.1999999999999995e-01 9.3437677657701119e+00 9.1755533289179123e+00 1.7103707672097694e+00 0 2 5
4134 1378 3 4.0999999999999998e-01 4.1452726738630723e+00 7.1464856236629339e+00 1.0496940396865556e+01 1 -1 0
2800 934 3 4.0999999999999998e-01 5.8336419772140511e+00 3.0016031227266837e+00 1.0794417323381968e+00 1 0 -2
4864 1622 3 4.0999999999999998e-01 3.6054668422656952e+00 9.3301262959406071e+00 1.0038838887186666e+01 5 -2 0
5620 1874 3 4.0999999999999998e-01 3.6948634288470177e+00 3.6612483505288766e+00 1.1693817487159812e+00 2 6 0
1116 372 3 4.0999999999999998e-01 5.9849055615268187e-01 8.6641660874657571e+00 9.0745642399768869e+00 -2 -1 0
7204 2402 3 4.0999999999999998e-01 9.0937225917581426e+00 2.8031195018461696e+00 1.0302552856865320e+01 1 -2 0
1836 612 3 4.0999999999999998e-01 1.0213246994836103e+01 2.0336736102091888e+00 4.4966973775641099e+00 2 -3 -3
6166 2056 3 4.0999999999999998e-01 2.6543203450362967e+00 1.2057833182817401e+00 3.3565519562543344e+00 2 3 3
4128 1376 3 4.0999999999999998e-01 4.4853867053999981e+00 1.0327586013988096e+01 6.3439710197888024e+00 5 0 2
3896 1299 4 -8.1999999999999995e-01 9.0027408289200428e-01 1.0481865304010636e+01 1.6850729732558412e+00 -1 1 3
4809 1603 3 4.0999999999999998e-01 2.0318501558111608e+00 9.2898591455742849e+00 8.2961184334516136e-01 5 2 1
1374 458 3 4.0999999999999998e-01 7.4937098953422254e-01 5.1706176228939702e+00 1.6550245431224528e+01 -3 4 3
1533 511 3 4.0999999999999998e-01 9.3686819410140370e+00 5.6342340040132717e+00 1.6218204373165257e+01 0 9 5
4115 1372 4 -8.1999999999999995e-01 6.6861020629884971e+00 6.0347724933693785e+00 1.3800394698516076e+01 1 -4 3
1531 511 3 4.0999999999999998e-01 9.5372274203310443e+00 4.4229695439131547e+00 1.7354820729991872e+01 0 9 5
1066 356 3 4.0999999999999998e-01 2.9130709152423356e-01 3.6005138360081905e+00 1.4060099095581464e+01 -3 3 6
1526 509 4 -8.1999999999999995e-01 1.4205126595147750e+00 8.1846623255306969e+00 1.2522187570467494e+01 4 1 -2
1692 564 3 4.0999999999999998e-01 4.9713598835478718e+00 9.3213386373234943e+00 1.4717266663176032e+01 3 2 0
3254 1085 4 -8.1999999999999995e-01 6.2335775779825573e+00 9.3475317124207606e+00 1.2214153896834684e+01 -5 -1 -3
3325 1109 3 4.0999999999999998e-01 7.3977571533656876e+00 9.5475331549322495e-01 1.9807083748079183e+01 -2 2 2
392 131 4 -8.1999999999999995e-01 2.3600357342881106e+00 7.8879562549254105e+00 1.7034166956663636e+01 0 -1 7
6117 2039 3 4.0999999999999998e-01 8.7991192736455925e+00 8.4535873043594503e+00 1.3569110800762680e+01 -7 0 2
3612 1204 3 4.0999999999999998e-01 2.0405384255973562e+00 9.6489074878387306e+00 1.1880497120608549e+01 3 -5 3
4965 1655 3 4.0999999999999998e-01 3.9807505413205408e+00 2.0917464495654272e+00 1.7915116093472570e+01 -3 -1 0
4918 1640 3 4.0999999999999998e-01 8.6916416633544706e+00 4.2252908085807848e+00 1.5066625102378602e+01 -1 1 -2
5323 1775 3 4.0999999999999998e-01 2.2276954217367688e+00 3.5180796643025092e+00 1.4782637078659688e+01 3 1 -3
2380 794 3 4.0999999999999998e-01 7.1190491581753594e+00 9.2799841774935601e+00 1.7750947869373579e+01 3 6 -1
4919 1640 4 -8.1999999999999995e-01 8.6858691490760638e+00 4.0041172450162144e+00 1.4058660528085129e+01 -1 1 -2
6083 2028 4 -8.1999999999999995e-01 6.0933289085820386e+00 4.1382831504212175e-01 1.9064020462639391e+01 1 -2 1
6628 2210 3 4.0999999999999998e-01 7.0395342576404785e+00 3.1016589086510282e+00 1.8230951760437680e+01 4 -1 0
1068 356 3 4.0999999999999998e-01 8.3474197955425944e-01 3.1349270294941980e+00 1.2589339858598933e+01 -3 3 6
2333 778 4 -8.1999999999999995e-01 4.0708535658301699e+00 5.9288354815723219e+00 1.9562358854317456e+01 1 -1 3
6629 2210 4 -8.1999999999999995e-01 6.6772603438104730e+00 4.0380887255597084e+00 1.7906742915264157e+01 4 -1 0
5820 1940 3 4.0999999999999998e-01 8.9921866386828064e+00 2.4587964729070819e+00 1.9409579719328491e+01 -1 2 2
2381 794 4 -8.1999999999999995e-01 6.2312646778312226e+00 8.8569819781761936e+00 1.7990318883499569e+01 3 6 -1
1736 579 4 -8.1999999999999995e-01 3.2710770946554009e+00 5.8903584096987389e+00 1.4097961130179355e+01 2 1 -1
4519 1507 3 4.0999999999999998e-01 2.8712249485550934e+00 4.0403469266612397e+00 1.9403865692725784e+01 3 1 -1
1735 579 3 4.0999999999999998e-01 2.3752036558979546e+00 5.8400655889383257e+00 1.4573382859763852e+01 2 1 -1
105 35 3 4.0999999999999998e-01 6.3262270624847421e+00 2.8898299794995870e+00 1.3236438848635508e+01 -3 -2 2
3611 1204 4 -8.1999999999999995e-01 2.6674979321246610e+00 1.0290217317083904e+01 1.1319519355065149e+01 3 -5 3
4114 1372 3 4.0999999999999998e-01 6.6452201495273790e+00 5.7691233328561413e+00 1.2815908230810134e+01 1 -4 3
2334 778 3 4.0999999999999998e-01 4.6901800395087800e+00 6.5013007871206900e+00 2.0134324133778541e+01 1 -1 3
6472 2158 3 4.0999999999999998e-01 2.3777266617958492e+00 6.7709867596652957e+00 1.9913414210028325e+01 -2 2 -3
3184 1062 3 4.0999999999999998e-01 2.8169418546509166e+00 5.6765919340021957e+00 1.1079343385940987e+01 4 -4 5
3275 1092 4 -8.1999999999999995e-01 6.0079795643557032e+00 7.4186607278275005e+00 2.0310488403501360e+01 6 -2 1
3255 1085 3 4.0999999999999998e-01 7.1304358366969849e+00 8.9050799406791601e+00 1.2203898257081482e+01 -5 -1 -3
4081 1361 3 4.0999999999999998e-01 9.8365043268611929e-01 4.0316646938359152e-01 1.5813178129129172e+01 -2 -2 0
4521 1507 3 4.0999999999999998e-01 1.8651895420313294e+00 2.7745834887195868e+00 1.8957493087334278e+01 3 1 -1
3553 1185 3 4.0999999999999998e-01 8.9217210454028850e-01 1.0530701882214304e+01 1.3637811311163091e+01 3 -3 -1
6116 2039 4 -8.1999999999999995e-01 9.2617370650255069e+00 8.6346202292750593e+00 1.2642572977976416e+01 -7 0 2
3185 1062 4 -8.1999999999999995e-01 1.9265790718349465e+00 5.1987349846263262e+00 1.1152287462794726e+01 4 -4 5
1691 564 4 -8.1999999999999995e-01 5.0238322801771842e+00 8.5581495115635917e+00 1.5396073693739568e+01 3 2 0
5767 1923 3 4.0999999999999998e-01 1.0456779322798369e+01 3.9629349327445205e+00 1.9551100294029634e+01 1 1 -3
3253 1085 3 4.0999999999999998e-01 5.5710205497659508e+00 8.9282553654539534e+00 1.1587195781847459e+01 -5 -1 -3
4964 1655 4 -8.1999999999999995e-01 4.0800146337175498e+00 1.2272246041839145e+00 1.7368266074257214e+01 -3 -1 0
3186 1062 3 4.0999999999999998e-01 1.9403446769228017e+00 4.7134583989111025e+00 1.2067292903911037e+01 4 -4 5
224 75 4 -8.1999999999999995e-01 4.3517239488801609e+00 4.9922804667748890e+00 1.6704233246380916e+01 2 -6 -1
5324 1775 4 -8.1999999999999995e-01 3.1074143729998056e+00 3.2892229043253267e+00 1.5253206093521769e+01 3 1 -3
3276 1092 3 4.0999999999999998e-01 6.7668108166218106e+00 6.7898043487290760e+00 2.0228038483197000e+01 6 -2 1
3274 1092 3 4.0999999999999998e-01 6.1765450788817233e+00 8.0688636532912703e+00 1.9495279413004013e+01 6 -2 1
6630 2210 3 4.0999999999999998e-01 7.4072467650848495e+00 4.7066826297626037e+00 1.7636486958419148e+01 4 -1 0
4963 1655 3 4.0999999999999998e-01 3.2072726167335803e+00 6.4985093197472565e-01 1.7216936060237622e+01 -3 -1 0
108 36 3 4.0999999999999998e-01 4.6019725756623187e+00 2.3461553364960870e+00 1.2193506181596417e+01 3 -1 2
5818 1940 3 4.0999999999999998e-01 9.7909268961173694e+00 2.3175700394869958e+00 1.7980261964046225e+01 -1 2 2
5929 1977 3 4.0999999999999998e-01 1.0351420812766008e+01 5.3515215311965738e+00 1.2371702831827305e+01 -4 0 3
391 131 3 4.0999999999999998e-01 1.7966504094096267e+00 7.0484510316862021e+00 1.6781035187812257e+01 0 -1 7
4145 1382 4 -8.1999999999999995e-01 2.4041668288925452e-01 2.4239675233169353e+00 1.8772485676265205e+01 0 -2 0
5733 1911 3 4.0999999999999998e-01 4.8165069098843460e+00 4.6186141519401405e+00 1.2446404979116876e+01 4 -2 -2
1527 509 3 4.0999999999999998e-01 7.1387438764001609e-01 8.1052230401486476e+00 1.3289850906432557e+01 4 1 -2
3326 1109 4 -8.1999999999999995e-01 8.4095299746519920e+00 1.0313205561420558e+00 2.0161658916883734e+01 -2 2 2
1067 356 4 -8.1999999999999995e-01 1.0825497888717395e+00 3.7226082154978783e+00 1.3376445540360326e+01 -3 3 6
5731 1911 3 4.0999999999999998e-01 4.3292857159492115e+00 3.8771798375899875e+00 1.3868389368135748e+01 4 -2 -2
103 35 3 4.0999999999999998e-01 6.4227440500439581e+00 1.3127029361100866e+00 1.3935892756171654e+01 -3 -2 2
1737 579 3 4.0999999999999998e-01 3.9843543894071098e+00 6.0908516723390678e+00 1.4757572619376770e+01 2 1 -1
2865 955 3 4.0999999999999998e-01 3.7622911930002295e-01 8.6810038626567216e+00 1.1305849513216440e+01 0 -4 -2
3233 1078 4 -8.1999999999999995e-01 6.0710093708911668e+00 3.9517870518934020e+00 2.0719037938119580e+01 -4 -2 4
107 36 4 -8.1999999999999995e-01 4.3023650733504173e+00 1.3946476825985621e+00 1.1997818801919285e+01 3 -1 2
4083 1361 3 4.0999999999999998e-01 7.5051101528879416e-01 1.2843420186174273e+00 1.7176048953479903e+01 -2 -2 0
2332 778 3 4.0999999999999998e-01 4.3187993046641129e+00 6.0645167157613757e+00 1.8559416003070456e+01 1 -1 3
1532 511 4 -8.1999999999999995e-01 8.9049743744232313e+00 4.8327993199998964e+00 1.6666395001754076e+01 0 9 5
1525 509 3 4.0999999999999998e-01 1.8434918330401655e+00 7.2356938406071496e+00 1.2348144355967063e+01 4 1 -2
6013 2005 3 4.0999999999999998e-01 7.4533734716975450e+00 2.2577238530939510e+00 1.1863971555099903e+01 2 -2 2
5325 1775 3 4.0999999999999998e-01 3.0783641079005797e+00 2.3323575523509223e+00 1.5550218729685671e+01 3 1 -3
1690 564 3 4.0999999999999998e-01 5.1823165348095461e+00 7.7587860638435826e+00 1.4765004387719936e+01 3 2 0
4133 1378 4 -8.1999999999999995e-01 4.4243221325437148e+00 6.3187608125238715e+00 1.1017248682950433e+01 1 -1 0
5370 1790 3 4.0999999999999998e-01 7.4249222339437999e+00 7.7839022032203395e+00 1.5271946293362328e+01 0 0 2
7290 2430 3 4.0999999999999998e-01 2.8107081842818786e+00 9.9272264986215113e+00 1.7206969744467361e+01 -3 -1 3
2382 794 3 4.0999999999999998e-01 5.6092820302493056e+00 8.7826455597649886e+00 1.7137978791473490e+01 3 6 -1
546 182 3 4.0999999999999998e-01 9.3852042120066841e+00 7.5809214750515128e+00 1.5744538529311939e+01 -4 -1 -3
4520 1507 4 -8.1999999999999995e-01 2.7700378921120965e+00 3.0519960022065593e+00 1.9329330998026496e+01 3 1 -1
2088 696 3 4.0999999999999998e-01 5.8095654301696644e+00 9.8998143035532831e+00 1.9218878712767225e+01 2 5 3
106 36 3 4.0999999999999998e-01 3.8357122463939306e+00 1.0084366163125049e+00 1.2863492801279335e+01 3 -1 2
3498 1166 3 4.0999999999999998e-01 9.7635821081738268e+00 8.7675457002560488e+00 1.0640490919265417e+01 4 0 0
5732 1911 4 -8.1999999999999995e-01 4.9103285695569765e+00 3.7844237778143905e+00 1.2990884364726694e+01 4 -2 -2
2926 976 3 4.0999999999999998e-01 2.7243770104868148e-01 5.7024173192801566e+00 1.0727438033315998e+01 -1 1 1
545 182 4 -8.1999999999999995e-01 1.0292430605127903e+01 7.0858032339593455e+00 1.6029304460137762e+01 -4 -1 -3
6473 2158 4 -8.1999999999999995e-01 1.5037964152690424e+00 7.2722158663078673e+00 1.9514156385967127e+01 -2 2 -3
768 256 3 4.0999999999999998e-01 1.0446452864963399e+01 3.1741533640203019e+00 1.3253601469546116e+01 -5 -3 1
223 75 3 4.0999999999999998e-01 3.8489632525543116e+00 4.2626396144237981e+00 1.6176008136867299e+01 2 -6 -1
393 131 3 4.0999999999999998e-01 3.2424144968970929e+00 7.6454493930428251e+00 1.6562051470916899e+01 0 -1 7
225 75 3 4.0999999999999998e-01 5.2203932118147174e+00 4.6059399367794862e+00 1.7191995350619838e+01 2 -6 -1
5369 1790 4 -8.1999999999999995e-01 8.2282148362108849e+00 8.3872235965309443e+00 1.5088415598640944e+01 0 0 2
104 35 4 -8.1999999999999995e-01 6.9624384799844421e+00 2.1285933624264191e+00 1.3574452740642183e+01 -3 -2 2
4116 1372 3 4.0999999999999998e-01 7.5386591051033767e+00 5.5687709366964464e+00 1.4138609749839988e+01 1 -4 3
5819 1940 4 -8.1999999999999995e-01 9.4661699317762231e+00 2.9428068973681780e+00 1.8686987281844896e+01 -1 2 2
4920 1640 3 4.0999999999999998e-01 8.1666732507800361e+00 3.1484881284755537e+00 1.3842122850120413e+01 -1 1 -2
6068 2023 4 -8.1999999999999995e-01 1.6243365662942975e+00 9.9364081512029898e+00 1.5043792945241472e+01 2 -1 4
1373 458 4 -8.1999999999999995e-01 9.0348443710535076e-01 5.9552240382857855e+00 1.5962859423143458e+01 -3 4 3
5296 1766 3 4.0999999999999998e-01 2.3130703945961884e+00 1.7848686948058590e+00 2.0740672847375706e+01 -3 -4 -5
3234 1078 3 4.0999999999999998e-01 5.7769599693235660e+00 4.0893832269648103e+00 1.9759431180883947e+01 -4 -2 4
5368 1790 3 4.0999999999999998e-01 7.9418465083750061e+00 9.3658196822222362e+00 1.5483515084637370e+01 0 0 2
4082 1361 4 -8.1999999999999995e-01 1.2651057884094628e+00 4.8726373517332705e-01 1.6795985700159999e+01 -2 -2 0
6115 2039 3 4.0999999999999998e-01 1.0037748163998382e+01 9.2333163289310676e+00 1.3029511433686830e+01 -7 0 2
6084 2028 3 4.0999999999999998e-01 5.3096107917892930e+00 7.5207749445914218e-01 1.8482900890368231e+01 1 -2 1
6069 2023 3 4.0999999999999998e-01 9.7071096625369080e-01 1.0135666533068230e+01 1.5803542115834572e+01 2 -1 4
6067 2023 3 4.0999999999999998e-01 2.1873987195857296e+00 9.0754527085763996e+00 1.5249332946828957e+01 2 -1 4
6474 2158 3 4.0999999999999998e-01 1.8397954500912173e+00 7.8477299916389427e+00 1.8682981020074440e+01 -2 2 -3
5646 1882 3 4.0999999999999998e-01 9.1426885805958182e+00 5.2869116564060930e+00 2.0289908492520102e+01 0 4 2
4086 1362 3 4.0999999999999998e-01 5.0908897682411887e+00 3.8027638809581604e-01 1.6265599365056133e+01 3 3 4
807 269 3 4.0999999999999998e-01 1.0354801996171179e+01 5.7364233761404870e-01 1.3128090639696216e+01 -1 -1 0
3050 1017 4 -8.1999999999999995e-01 6.9522516158492005e+00 5.1376851852087064e+00 1.0803698088323598e+01 -6 -5 0
5644 1882 3 4.0999999999999998e-01 7.5491216437564965e+00 4.7943211439807500e+00 2.0576813962892807e+01 0 4 2
5645 1882 4 -8.1999999999999995e-01 8.1923189002498074e+00 5.6236630274643469e+00 2.0577995937868174e+01 0 4 2
6014 2005 4 -8.1999999999999995e-01 7.6298616026866188e+00 2.3547201550060102e+00 1.0883638980737610e+01 2 -2 2
4132 1378 3 4.0999999999999998e-01 5.3545818837801047e+00 6.0004638007018922e+00 1.0789164796974442e+01 1 -1 0
3051 1017 3 4.0999999999999998e-01 7.2650644761974288e+00 4.1346564524861860e+00 1.0936799852841139e+01 -6 -5 0
1754 585 4 -8.1999999999999995e-01 4.0598591790331362e+00 7.1931279439057807e+00 2.6481338590270195e+01 2 -1 -2
5619 1873 3 4.0999999999999998e-01 7.8457991249327161e+00 3.8009503663948419e+00 2.6949846434367203e+01 -1 -2 -3
5437 1813 3 4.0999999999999998e-01 9.5636120982475195e+00 7.8677370742450954e+00 3.0050582546012890e+01 2 -4 -2
6012 2004 3 4.0999999999999998e-01 6.9280773907251554e+00 5.7343304839850706e+00 2.9218675932443258e+01 -4 2 1
5010 1670 3 4.0999999999999998e-01 7.7383929706516614e+00 7.5800170034733645e+00 2.8616368683520914e+01 0 -4 0
1664 555 4 -8.1999999999999995e-01 8.6584612133592227e+00 1.2036308365685209e+00 2.4938929123222067e+01 -1 0 -4
5751 1917 3 4.0999999999999998e-01 6.1526567815065327e+00 9.2956028374077415e-01 2.6330020582533326e+01 0 2 0
14 5 4 -8.1999999999999995e-01 4.9344155302912993e+00 9.2051848560444185e+00 2.9870485982613214e+01 -1 1 3
660 220 3 4.0999999999999998e-01 9.6471912425344630e+00 4.8413472705427312e+00 2.5544607996328875e+01 5 1 -2
5008 1670 3 4.0999999999999998e-01 7.1784011931946630e+00 6.9004590388319320e+00 2.7266276282867935e+01 0 -4 0
6314 2105 4 -8.1999999999999995e-01 6.2739034036298600e+00 2.2976621617556292e+00 2.4544320954032955e+01 0 -1 -3
5009 1670 4 -8.1999999999999995e-01 6.8842932664658525e+00 7.0764513487339142e+00 2.8227782291791954e+01 0 -4 0
4129 1377 3 4.0999999999999998e-01 3.4118499263104818e+00 3.5117494914787639e-01 2.5341328945147637e+01 3 1 2
5197 1733 3 4.0999999999999998e-01 2.1249400976064909e+00 7.7807058161270266e+00 2.4588030276993727e+01 1 0 0
2112 704 3 4.0999999999999998e-01 1.3465952002471930e+00 1.0496187520651398e+01 2.6640464023097621e+01 3 3 2
3324 1108 3 4.0999999999999998e-01 2.5077825363934263e+00 1.8404314233579837e+00 2.4212090413360428e+01 0 1 -1
5439 1813 3 4.0999999999999998e-01 9.2395886551766004e+00 8.8733336579565059e+00 2.8676592168569943e+01 2 -4 -2
6188 2063 4 -8.1999999999999995e-01 1.4505779191317945e+00 3.2615950175105883e+00 2.4657510851344544e+01 3 0 -2
2525 842 4 -8.1999999999999995e-01 5.1911469691893322e+00 8.2995114333501885e+00 2.3107583592143921e+01 2 2 1
15 5 3 4.0999999999999998e-01 5.2031639280152175e+00 8.2895713478017434e+00 2.9407886260869130e+01 -1 1 3
5862 1954 3 4.0999999999999998e-01 1.0633840099092930e+00 5.2397330293557092e+00 2.7340602927105845e+01 4 2 -3
5855 1952 4 -8.1999999999999995e-01 7.3708708128773113e+00 6.0301526589929511e+00 2.3341449362535123e+01 2 0 -2
2577 859 3 4.0999999999999998e-01 5.4520257456580445e+00 9.8997450442227972e+00 2.5867689265772277e+01 0 0 2
571 191 3 4.0999999999999998e-01 7.9045640032847224e+00 9.2439573175959318e+00 3.0794563944771948e+01 0 6 0
658 220 3 4.0999999999999998e-01 8.2369259581949610e+00 5.3116453748298618e+00 2.4672860768086164e+01 5 1 -2
3036 1012 3 4.0999999999999998e-01 1.0138156334362430e+01 1.8356955231105294e+00 2.8284799921174471e+01 2 3 -3
1625 542 4 -8.1999999999999995e-01 6.5120043548394069e-01 1.9466094206657318e+00 2.7949184275547456e+01 4 -1 -6
5765 1922 4 -8.1999999999999995e-01 2.5356978734879383e+00 5.0599305372457577e+00 2.2847743038541150e+01 0 5 0
6906 2302 3 4.0999999999999998e-01 2.7783490706548224e+00 7.4490746126946101e+00 2.9680275118304305e+01 3 -3 -2
5939 1980 4 -8.1999999999999995e-01 5.1820767459877031e+00 5.0013641936737061e+00 2.4891885161622692e+01 0 3 -3
13 5 3 4.0999999999999998e-01 4.1635657902659560e+00 8.8314913810893394e+00 3.0510390099470502e+01 -1 1 3
6189 2063 3 4.0999999999999998e-01 1.6874239619520717e+00 4.0335384475858165e+00 2.5313108711575506e+01 3 0 -2
637 213 3 4.0999999999999998e-01 1.1069744316396544e+00 7.9500528130036208e-01 3.0741237840177323e+01 0 -1 0
3035 1012 4 -8.1999999999999995e-01 9.2642213114789786e+00 1.6647179407552322e+00 2.8720262323167685e+01 2 3 -3