LAMMPS data file via write_data, version 5 Jun 2019, timestep = 15000000

7349 atoms
5 atom types
4899 bonds
2 bond types
2451 angles
2 angle types
1 impropers
1 improper types

1.5519297081455363e-01 4.1845807029189409e+01 xlo xhi
1.5469297081455124e-01 4.1845307029189406e+01 ylo yhi
1.5469297081455124e-01 4.1845307029189406e+01 zlo zhi

#Masses
#
#1 12.01
#2 40.08
#3 1.01
#4 16
#5 16
#
#Bond Coeffs # harmonic
#
#1 20.4246 1.3042
#2 22.965 1.012

Atoms # full

5468 1823 4 -8.1999999999999995e-01 7.2005338465877857e+00 2.3972872073629783e+00 2.1007960355186266e+00 1 0 2
1092 364 3 4.0999999999999998e-01 7.9813606629688012e+00 4.0456760497910033e-01 5.5389257326593802e+00 1 0 1
1145 382 4 -8.1999999999999995e-01 1.0065403134245864e+01 5.7933157239737216e+00 8.0152405009021823e+00 2 -1 1
409 137 3 4.0999999999999998e-01 5.8193646705493576e+00 8.2743876669618732e+00 3.9755773370006522e+00 3 2 1
4387 1463 3 4.0999999999999998e-01 1.9305360402484713e+00 7.3552771085160016e+00 5.3010630209903615e+00 3 2 2
6432 2144 3 4.0999999999999998e-01 4.1196491091743868e+00 5.4498601661272517e+00 5.8380957757756446e-01 0 -1 4
3175 1059 3 4.0999999999999998e-01 7.8047753905609349e+00 9.0380324773592555e+00 3.2274810037928803e+00 2 2 1
5010 1670 3 4.0999999999999998e-01 8.0365676889409865e-01 2.2494756077172040e-01 2.9724103718344370e+00 0 -4 0
2821 941 3 4.0999999999999998e-01 1.1756631358660672e+00 4.6445332124171390e+00 2.4972496142569587e+00 0 -3 0
703 235 3 4.0999999999999998e-01 6.2826175851194943e-01 6.1380220735057165e+00 8.8020868929264502e+00 2 0 2
5467 1823 3 4.0999999999999998e-01 7.0343044267578634e+00 3.1075665837594983e+00 2.7613041472317597e+00 1 0 2
6278 2093 4 -8.1999999999999995e-01 9.8752634264142127e+00 1.6617314575268778e+00 2.7013685484847803e+00 4 -1 -2
525 175 3 4.0999999999999998e-01 4.1648724132203135e-01 9.1926040165551939e+00 2.4544082265904299e+00 3 -1 0
705 235 3 4.0999999999999998e-01 1.1221594636962946e+00 6.1310557378019155e+00 7.2858615272792679e+00 2 0 2
4300 1434 3 4.0999999999999998e-01 1.0280652684885192e+01 8.3119396683645519e+00 3.2848686222109209e+00 5 1 -4
5378 1793 4 -8.1999999999999995e-01 2.7797608805427099e+00 2.3785070287939414e+00 1.1418978534675714e+00 0 3 2
4389 1463 3 4.0999999999999998e-01 1.2644997251592844e+00 8.3237317416738588e+00 6.4089765138181107e+00 3 2 2
4388 1463 4 -8.1999999999999995e-01 1.6482417736875674e+00 7.3873755773254803e+00 6.2870181533174678e+00 3 2 2
2851 951 3 4.0999999999999998e-01 3.8388815438568553e+00 1.8569973000942235e+00 6.3012165127342694e+00 -3 2 -2
1950 650 3 4.0999999999999998e-01 7.8632118591090681e+00 2.0745606395340039e+00 6.5448838659399353e+00 -1 -2 0
6724 2242 3 4.0999999999999998e-01 6.1345863108375465e+00 9.5208207929596842e+00 9.3266764231225689e+00 -1 1 -1
6431 2144 4 -8.1999999999999995e-01 4.0045854306764870e+00 6.2842924493962089e+00 1.1054141818369814e+00 0 -1 4
1886 629 4 -8.1999999999999995e-01 3.7142267897313683e+00 7.7120723842432062e+00 8.2893913643059332e+00 0 -2 -1
4949 1650 4 -8.1999999999999995e-01 2.1355690201808120e+00 1.8148482973493787e+00 5.7026238458966994e+00 3 3 6
4868 1623 4 -8.1999999999999995e-01 7.1213803304380798e+00 7.7441030505757871e+00 6.4097031744990636e+00 1 6 -2
2823 941 3 4.0999999999999998e-01 2.7840377143813821e+00 4.3822477280013077e+00 2.7863447350544268e+00 0 -3 0
3201 1067 3 4.0999999999999998e-01 8.7648093641873768e+00 1.0194546367055452e+01 4.5472613581758949e+00 -2 -2 1
6138 2046 3 4.0999999999999998e-01 8.9820448841977445e+00 1.5977398433574033e+00 4.3018127348228008e+00 3 -2 -1
6146 2049 4 -8.1999999999999995e-01 5.3445404854984035e+00 1.0169856080101296e+01 8.3695799233685630e-01 -2 -2 5
5009 1670 4 -8.1999999999999995e-01 5.9842771328915512e-01 9.8217461767306002e-01 2.3155217464172320e+00 0 -4 0
6279 2093 3 4.0999999999999998e-01 1.0409733645425812e+01 2.5146501279924229e+00 2.5190417957910052e+00 4 -1 -2
4091 1364 4 -8.1999999999999995e-01 8.2426705979192807e+00 5.4922330477130394e+00 5.4415635852503454e+00 -2 -1 1
7275 2425 3 4.0999999999999998e-01 5.0052733265878553e+00 9.4621305352111325e+00 6.4780627752072926e+00 -1 3 3
7054 2352 3 4.0999999999999998e-01 1.9985890411110545e+00 3.0871336170498234e+00 9.9130991624280007e+00 1 1 0
5650 1884 3 4.0999999999999998e-01 2.8380061438693098e+00 2.7942705497609799e+00 4.2154247537536129e+00 -4 -1 2
3939 1313 3 4.0999999999999998e-01 1.0370116583265192e+01 9.3071218560828566e+00 5.7725298417596962e+00 -6 2 1
4869 1623 3 4.0999999999999998e-01 7.5741652350689019e+00 6.8834140537460256e+00 6.0136093147028227e+00 1 6 -2
5469 1823 3 4.0999999999999998e-01 6.9203065311508896e+00 2.7257276872912795e+00 1.1606989725390247e+00 1 0 2
7056 2352 3 4.0999999999999998e-01 1.9296355088529673e+00 4.6112336599086587e+00 9.1748349250863779e+00 1 1 0
6414 2138 3 4.0999999999999998e-01 3.6123127798309143e+00 9.5469903403170686e-01 1.8920062112107972e+00 3 5 -1
650 217 4 -8.1999999999999995e-01 7.8910877397374026e+00 8.6009045166151203e+00 9.0556298999407812e+00 1 0 2
7256 2419 4 -8.1999999999999995e-01 1.0114760042907305e+01 1.0240025232187749e+01 8.7732100971226767e+00 0 1 2
5174 1725 4 -8.1999999999999995e-01 9.5055651118320927e+00 5.5131578045217955e+00 1.6319010348161263e+00 2 -1 -3
6725 2242 4 -8.1999999999999995e-01 5.1218861897921517e+00 9.7596355276344990e+00 9.3024336006416100e+00 -1 1 -1
6433 2145 3 4.0999999999999998e-01 7.0567226308901532e+00 3.2827097460752923e+00 8.7121031671669726e+00 2 -1 4
2822 941 4 -8.1999999999999995e-01 2.0706562726328017e+00 5.0770309404958294e+00 2.4891018743493745e+00 0 -3 0
5173 1725 3 4.0999999999999998e-01 9.7976287521129155e+00 6.2061666957879984e+00 2.3454492757322738e+00 2 -1 -3
3177 1059 3 4.0999999999999998e-01 6.9949926299211578e+00 7.9632909346483123e+00 2.1251002410106703e+00 2 2 1
1949 650 4 -8.1999999999999995e-01 7.1784995347099452e+00 2.4117476882268289e+00 7.2881776721383460e+00 -1 -2 0
277 93 3 4.0999999999999998e-01 7.2921518986532448e+00 4.4583837657232545e-01 7.8550211976373499e+00 3 2 1
5175 1725 3 4.0999999999999998e-01 8.9561531786719843e+00 5.9862738134117333e+00 9.7330787504126970e-01 2 -1 -3
6137 2046 4 -8.1999999999999995e-01 8.9220463516672321e+00 1.7648077890693159e+00 5.3363890173946489e+00 3 -2 -1
4090 1364 3 4.0999999999999998e-01 7.6027308089388370e+00 5.2672345894048860e+00 4.6660046356149891e+00 -2 -1 1
6140 2047 4 -8.1999999999999995e-01 1.6960012171551955e+00 1.1376399236254755e+00 9.8652488177856377e+00 -1 2 -1
649 217 3 4.0999999999999998e-01 7.9963982232109858e+00 7.5813260257816051e+00 9.3792291822941873e+00 1 0 2
2142 714 3 4.0999999999999998e-01 8.7754385965102788e+00 5.8193902766059198e+00 8.9635389643871015e+00 2 -3 2
6430 2144 3 4.0999999999999998e-01 3.3139572500663768e+00 5.8882787715905103e+00 1.7585557511168046e+00 0 -1 4
5060 1687 4 -8.1999999999999995e-01 6.6295778955311500e+00 6.7864820032164221e+00 9.1028225601480139e-01 -5 0 4
3919 1307 3 4.0999999999999998e-01 4.6606461246307926e+00 4.1542245575541381e-01 5.3805136099994524e+00 3 1 -3
3500 1167 4 -8.1999999999999995e-01 4.9871606695993513e+00 5.1678599949763457e+00 7.9281016106411286e+00 2 2 1
411 137 3 4.0999999999999998e-01 5.7662290906628497e+00 7.4048489022012163e+00 5.3089148878436694e+00 3 2 1
6435 2145 3 4.0999999999999998e-01 6.1356015389253473e+00 3.0818740530373430e+00 1.0117768101572743e+01 2 -1 4
2852 951 4 -8.1999999999999995e-01 4.7813484863771141e+00 1.6695504929339171e+00 6.6793767994952464e+00 -3 2 -2
5061 1687 3 4.0999999999999998e-01 6.9367793066213066e+00 5.8985387199155355e+00 4.6433228873263244e-01 -5 0 4
3738 1246 3 4.0999999999999998e-01 9.6622861389752668e+00 6.0391531819386239e+00 4.5257040483282118e+00 3 3 -1
5651 1884 4 -8.1999999999999995e-01 3.6301903014623558e+00 3.2241946511981556e+00 3.6490946826259174e+00 -4 -1 2
3499 1167 3 4.0999999999999998e-01 4.3015445341771459e+00 4.4936584407199831e+00 7.5627977195657721e+00 2 2 1
4092 1364 3 4.0999999999999998e-01 8.2428343735766560e+00 4.7035637750572654e+00 6.0861491657698386e+00 -2 -1 1
2141 714 4 -8.1999999999999995e-01 8.1798259098780441e+00 5.9997456737072268e+00 9.7985515120553650e+00 2 -3 2
2026 676 3 4.0999999999999998e-01 5.5150655916433822e+00 3.8638908630473012e+00 3.7788172642471038e+00 0 1 -1
5377 1793 3 4.0999999999999998e-01 1.9437602259189637e+00 1.9459517351370141e+00 7.6154139433323520e-01 0 3 2
3199 1067 3 4.0999999999999998e-01 7.8994301820107244e+00 9.1112548376668396e+00 5.5270428059191428e+00 -2 -2 1
6145 2049 3 4.0999999999999998e-01 5.9165795282747258e+00 9.6077367054229352e+00 1.5474099141190425e+00 -2 -2 5
7055 2352 4 -8.1999999999999995e-01 2.5537391379144077e+00 3.9463839043892750e+00 9.7248243983043938e+00 1 1 0
533 178 4 -8.1999999999999995e-01 2.7532088436493698e+00 7.4897992974050718e+00 3.7755834599462434e+00 -3 -1 -1
4948 1650 3 4.0999999999999998e-01 1.2246536300419044e+00 2.3766155041966779e+00 5.7577459370491111e+00 3 3 6
1885 629 3 4.0999999999999998e-01 2.9341000770492198e+00 7.5404920884906730e+00 7.6691963588896614e+00 0 -2 -1
6413 2138 4 -8.1999999999999995e-01 4.3972771696144139e+00 3.2474452806481857e-01 2.1403516443749164e+00 3 5 -1
523 175 3 4.0999999999999998e-01 1.6145051112983442e+00 8.7327776921805320e+00 3.5659862630566819e+00 3 -1 0
2853 951 3 4.0999999999999998e-01 4.6198497998561265e+00 1.0526043815919011e+00 7.5141448642440247e+00 -3 2 -2
532 178 3 4.0999999999999998e-01 3.7665577675144264e+00 7.5548407551621546e+00 4.0361464034558683e+00 -3 -1 -1
4500 1500 3 4.0999999999999998e-01 7.3946022457086205e+00 8.3516537068092866e-01 2.2930881566820416e+00 -1 -1 -1
2028 676 3 4.0999999999999998e-01 5.9118605292838726e+00 5.4011038098250177e+00 3.2737719237981944e+00 0 1 -1
4301 1434 4 -8.1999999999999995e-01 1.0435874942270859e+01 8.9758489850713286e+00 2.4922230643340870e+00 5 1 -4
2027 676 4 -8.1999999999999995e-01 6.2213600754290770e+00 4.5898365560425711e+00 3.7744704198943779e+00 0 1 -1
534 178 3 4.0999999999999998e-01 2.4913693065795792e+00 6.5377694595104368e+00 3.2968740050383705e+00 -3 -1 -1
6136 2046 3 4.0999999999999998e-01 9.8309079360368852e+00 2.2590861257748185e+00 5.4439911369356002e+00 3 -2 -1
2140 714 3 4.0999999999999998e-01 7.4645955324678495e+00 5.2758296552317541e+00 9.9577251206138673e+00 2 -3 2
3501 1167 3 4.0999999999999998e-01 5.8140762451879420e+00 4.7970379048376381e+00 8.2725993012439218e+00 2 2 1
5652 1884 3 4.0999999999999998e-01 3.9782266548488101e+00 2.4538474204225675e+00 3.0060688399034148e+00 -4 -1 2
1948 650 3 4.0999999999999998e-01 6.2897548848415212e+00 2.0770964687082780e+00 6.9508663520668215e+00 -1 -2 0
704 235 4 -8.1999999999999995e-01 8.5834455786453301e-01 5.4742011226635920e+00 8.0142196265512471e+00 2 0 2
4867 1623 3 4.0999999999999998e-01 7.5311158386056816e+00 7.9847220125989100e+00 7.2955387197338810e+00 1 6 -2
5059 1687 3 4.0999999999999998e-01 5.5309402399554912e+00 6.6682423484734503e+00 1.0482934690730445e+00 -5 0 4
410 137 4 -8.1999999999999995e-01 5.3830800482334871e+00 7.4676872600701634e+00 4.3255191889349165e+00 3 2 1
1887 629 3 4.0999999999999998e-01 4.4070870733802696e+00 6.9833960802798867e+00 8.1726409829413189e+00 0 -2 -1
524 175 4 -8.1999999999999995e-01 9.2289190323404569e-01 9.4543657741509151e+00 3.3077080232543534e+00 3 -1 0
4950 1650 3 4.0999999999999998e-01 1.9374053800955182e+00 9.3973247416047889e-01 6.2085345112663557e+00 3 3 6
6726 2242 3 4.0999999999999998e-01 4.5826276269291517e+00 8.9001448697964314e+00 9.0316541951943350e+00 -1 1 -1
651 217 3 4.0999999999999998e-01 8.8397180397618289e+00 9.0876841969781452e+00 9.0700205810322192e+00 1 0 2
3176 1059 4 -8.1999999999999995e-01 6.9845200715792766e+00 8.8632745324603039e+00 2.6524990511970694e+00 2 2 1
6434 2145 4 -8.1999999999999995e-01 6.8793363737765505e+00 3.5918478731085592e+00 9.6690159564506430e+00 2 -1 4
7048 2350 3 4.0999999999999998e-01 9.8019510018477192e+00 8.8083370420391969e+00 8.9156629382025521e-01 -4 1 -1
4495 1499 3 4.0999999999999998e-01 8.8690319865050871e+00 3.6001193452158256e+00 9.9470412193219406e+00 1 -2 2
4298 1433 4 -8.1999999999999995e-01 6.0796375771243272e-01 1.0033595253810690e+01 7.8153574945417139e+00 0 -1 1
6277 2093 3 4.0999999999999998e-01 9.0528584312572207e+00 1.7946741947950307e+00 2.1219664933580016e+00 4 -1 -2
6141 2047 3 4.0999999999999998e-01 7.9339514682511358e-01 1.0860342501108013e+00 9.3965595125740364e+00 -1 2 -1
3200 1067 4 -8.1999999999999995e-01 8.7694602360295573e+00 9.2551331294771870e+00 4.9810273949575565e+00 -2 -2 1
4297 1433 3 4.0999999999999998e-01 2.5517418863246777e-01 9.7672825056206545e+00 8.7423208562663977e+00 0 -1 1
4496 1499 4 -8.1999999999999995e-01 9.6650200477158990e+00 3.4166560825455772e+00 1.0539397297800907e+01 1 -2 2
4497 1499 3 4.0999999999999998e-01 1.0431347177869682e+01 3.5001403802882094e+00 9.9926915115428780e+00 1 -2 2
6139 2047 3 4.0999999999999998e-01 2.4408574351839283e+00 9.4560147415148443e-01 9.1878782490649815e+00 -1 2 -1
1533 511 3 4.0999999999999998e-01 5.9448560282377194e-01 7.8801252260624635e+00 1.0369820314797735e+01 0 6 3
5193 1731 3 4.0999999999999998e-01 1.0142445650867810e+01 4.2994419710898431e+00 1.0187048633928417e+00 3 3 -2
784 262 3 4.0999999999999998e-01 2.5283119855264685e-01 2.5847553298813275e+00 2.6514421772666195e+00 -2 -2 2
5379 1793 3 4.0999999999999998e-01 3.0145576674971921e+00 3.1501338485626418e+00 5.1946583824588288e-01 0 3 2
3737 1246 4 -8.1999999999999995e-01 1.0450957016702079e+01 6.5590913806223892e+00 4.1559198797542978e+00 3 3 -1
6147 2049 3 4.0999999999999998e-01 4.6633753987864655e+00 9.5455103162712067e+00 4.7750965754866836e-01 -2 -2 5
1532 511 4 -8.1999999999999995e-01 9.6806558204276727e-01 6.9394584418967238e+00 1.0135560331264221e+01 0 6 3
4579 1527 3 4.0999999999999998e-01 1.6248040363268335e+00 7.5020869820484837e+00 4.6147289749710896e-01 6 0 4
7274 2425 4 -8.1999999999999995e-01 5.2111989822931637e+00 1.0408456029719915e+01 6.0994843442637947e+00 -1 3 3
1531 511 3 4.0999999999999998e-01 1.9504904223285944e+00 7.1271109644862998e+00 1.0382290381644086e+01 0 6 3
7257 2419 3 4.0999999999999998e-01 1.0522749166653735e+01 1.0077311827196731e+01 9.6627746126927665e+00 0 1 2
5192 1731 4 -8.1999999999999995e-01 1.0540225653009694e+01 3.4129772377921661e+00 5.8858002508721330e-01 3 3 -2
4581 1527 3 4.0999999999999998e-01 7.6585333383091703e-01 6.0713309512926399e+00 2.4099818892938885e-01 6 0 4
6223 2075 3 4.0999999999999998e-01 6.8309354669281666e+00 1.0302126709068403e+01 2.1936941305353486e-01 3 -1 4
5796 1932 3 4.0999999999999998e-01 9.3455375317241831e+00 1.4250540655763733e+00 1.5045369815076327e+01 2 1 0
1162 388 3 4.0999999999999998e-01 3.5384334470054551e-01 1.0084998869333200e+01 1.9123748747468426e+01 0 1 3
196 66 3 4.0999999999999998e-01 8.9466713196584244e+00 4.7657584874233088e+00 1.3625090273487974e+01 -1 0 4
3536 1179 4 -8.1999999999999995e-01 5.8065073451935243e+00 5.2644359635285847e+00 1.5424337563045283e+01 -1 1 1
1478 493 4 -8.1999999999999995e-01 9.9075482236079253e+00 6.3347332531105964e+00 1.4376277127043830e+01 0 2 1
4837 1613 3 4.0999999999999998e-01 8.6000421636775908e+00 4.1491272232412761e+00 1.8904021816057355e+01 4 0 1
7230 2410 3 4.0999999999999998e-01 4.4596035072838465e+00 2.2780099733257981e+00 1.2926802747157707e+01 -1 5 1
1317 439 3 4.0999999999999998e-01 3.3482135217885922e+00 7.7150938367824571e+00 1.9485269979028928e+01 1 2 -2
7228 2410 3 4.0999999999999998e-01 4.7721381151679916e+00 3.3594771683447182e+00 1.1812041368892640e+01 -1 5 1
3279 1093 3 4.0999999999999998e-01 2.8576517856213717e+00 8.8261472995899375e+00 1.1660652954955246e+01 6 4 -2
6362 2121 4 -8.1999999999999995e-01 4.1804494235219485e+00 1.0807470011602389e+00 1.7515540650100508e+01 -1 1 -1
4838 1613 4 -8.1999999999999995e-01 8.1430053498783685e+00 3.5960145857942072e+00 1.8211673685516185e+01 4 0 1
4674 1558 3 4.0999999999999998e-01 2.1777465447320581e+00 3.7268224351594554e+00 1.6125460098155457e+01 2 2 2
4483 1495 3 4.0999999999999998e-01 3.4348133946448409e+00 4.4115790606073633e+00 1.0825032962498787e+01 3 0 -3
1591 531 3 4.0999999999999998e-01 4.5904214687254807e+00 9.6090592901062841e+00 1.5126080947919554e+01 5 -2 0
5176 1726 3 4.0999999999999998e-01 3.6091799890786511e+00 7.5316720531483625e+00 1.4414294732257160e+01 -1 -3 0
2049 683 3 4.0999999999999998e-01 6.4728111619456117e+00 3.6125781197082736e+00 1.5028919235911129e+01 0 3 -2
2752 918 3 4.0999999999999998e-01 7.9804034212443034e+00 1.0385733831002042e+01 1.5755692616721607e+01 3 -3 0
496 166 3 4.0999999999999998e-01 5.5515746281026779e+00 7.3940267222605458e+00 1.7938928130484157e+01 -4 2 -5
6361 2121 3 4.0999999999999998e-01 5.2195569780120712e+00 1.1836507919549843e+00 1.7468397205226996e+01 -1 1 -1
1575 525 3 4.0999999999999998e-01 9.8634010374064136e+00 1.0336634289201914e+01 1.3577208394151475e+01 2 0 1
955 319 3 4.0999999999999998e-01 9.2512227507727243e+00 1.9975737638366164e+00 1.1500323290595924e+01 1 2 2
5516 1839 4 -8.1999999999999995e-01 2.9316184924696403e-01 7.1716018912269517e+00 1.8817357866365128e+01 -1 2 -1
3278 1093 4 -8.1999999999999995e-01 3.2641346255231611e+00 7.9506164060046745e+00 1.1329398612289062e+01 6 4 -2
3895 1299 3 4.0999999999999998e-01 1.0339212597583010e+01 5.1715525441295656e+00 1.6085931283983136e+01 -1 -1 1
5727 1909 3 4.0999999999999998e-01 6.8284239453504725e+00 4.4081330730226069e+00 1.9120995727245575e+01 2 1 -2
2384 795 4 -8.1999999999999995e-01 1.6674862667778838e+00 9.5853904238823020e+00 1.3098107113833390e+01 1 -1 -2
4749 1583 3 4.0999999999999998e-01 2.3711539743162429e+00 7.2140227416699254e+00 1.5700210723172495e+01 1 0 4
3535 1179 3 4.0999999999999998e-01 5.6432507235502287e+00 5.5892208698118475e+00 1.4417230738552368e+01 -1 1 1
498 166 3 4.0999999999999998e-01 7.0681160986297282e+00 7.0862423522271678e+00 1.7647349673425111e+01 -4 2 -5
5853 1951 3 4.0999999999999998e-01 8.3078412978543064e+00 1.2086348340015747e+00 2.0296474556291308e+01 -1 2 3
5177 1726 4 -8.1999999999999995e-01 2.7633011517500776e+00 7.0450877905381422e+00 1.4182102183866423e+01 -1 -3 0
309 103 3 4.0999999999999998e-01 6.7478630612790287e+00 6.8402877326151401e+00 2.0287891041699254e+01 -3 -2 4
5726 1909 4 -8.1999999999999995e-01 6.5452868462924858e+00 5.0520632493726350e+00 1.9837901056925023e+01 2 1 -2
1474 492 3 4.0999999999999998e-01 2.7399750792329778e+00 9.6003460588318141e+00 1.9803214773140489e+01 0 1 -6
5509 1837 3 4.0999999999999998e-01 6.4503427822872403e+00 7.8945935414756629e+00 1.2662778791006559e+01 1 2 2
3470 1157 4 -8.1999999999999995e-01 3.3625405920332252e+00 4.3282108350223707e+00 1.4913601818499032e+01 -3 1 4
2084 695 4 -8.1999999999999995e-01 8.6493032740378020e+00 7.5349205742278782e+00 1.8535902542521665e+01 2 2 3
2165 722 4 -8.1999999999999995e-01 8.9941875639140871e+00 9.9786127347941953e+00 1.1875823671532247e+01 3 -1 0
3471 1157 3 4.0999999999999998e-01 4.3109020776718161e+00 4.6501884361727575e+00 1.5289760852529380e+01 -3 1 4
4161 1387 3 4.0999999999999998e-01 1.0007550836740794e+01 1.0091987745429217e+01 1.7315835342051230e+01 -1 3 -2
5725 1909 3 4.0999999999999998e-01 5.8870921007409809e+00 4.5287258026119259e+00 2.0474348953175806e+01 2 1 -2
6668 2223 4 -8.1999999999999995e-01 6.2587157305883228e+00 5.9900382235559313e+00 1.2660759921238329e+01 2 0 1
5795 1932 4 -8.1999999999999995e-01 8.8413400169373997e+00 6.1958694370316891e-01 1.5430849979575884e+01 2 1 0
5515 1839 3 4.0999999999999998e-01 9.3529051238300864e-01 7.3097017379038824e+00 1.7989780754172067e+01 -1 2 -1
7229 2410 4 -8.1999999999999995e-01 4.9941479252970273e+00 2.4170140884138225e+00 1.2066384272793332e+01 -1 5 1
1316 439 4 -8.1999999999999995e-01 3.2553899064950937e+00 8.0177518468190225e+00 2.0470893767981920e+01 1 2 -2
3198 1066 3 4.0999999999999998e-01 1.0475780187649290e+01 5.2255974070856652e+00 1.9971621216153512e+01 -3 -1 -1
6008 2003 4 -8.1999999999999995e-01 9.8809191005436272e+00 7.1075136797891023e+00 1.1550250032288403e+01 -1 2 -3
4748 1583 4 -8.1999999999999995e-01 1.8717700714345864e+00 7.4138737418157872e+00 1.6566578761298160e+01 1 0 4
5794 1932 3 4.0999999999999998e-01 7.9238413255070874e+00 9.3492292118210885e-01 1.5710688724266934e+01 2 1 0
2754 918 3 4.0999999999999998e-01 7.8842334754703920e+00 8.8804459736603523e+00 1.6408200857424362e+01 3 -3 0
956 319 4 -8.1999999999999995e-01 8.9788969121830782e+00 1.2580456659341577e+00 1.2122700080542813e+01 1 2 2
4839 1613 3 4.0999999999999998e-01 8.7263037296950987e+00 3.7030372659705622e+00 1.7413963065801486e+01 4 0 1
5309 1770 4 -8.1999999999999995e-01 3.9597390140277184e+00 6.4030950631588048e+00 1.8331764010092307e+01 -3 -1 -1
497 166 4 -8.1999999999999995e-01 6.2488903828172040e+00 7.6375718133357307e+00 1.7272357562600476e+01 -4 2 -5
198 66 3 4.0999999999999998e-01 9.2133103362167983e+00 4.0044794277153990e+00 1.2203385106986543e+01 -1 0 4
5511 1837 3 4.0999999999999998e-01 6.2644919661124669e+00 9.1078224493729572e+00 1.3526402069023225e+01 1 2 2
6360 2120 3 4.0999999999999998e-01 3.7050285057928961e-01 7.8443872172377205e-01 1.8426119953849632e+01 2 -1 -6
4672 1558 3 4.0999999999999998e-01 1.2137120356814650e+00 4.8170452821260277e+00 1.6930541867598137e+01 2 2 2
4372 1458 3 4.0999999999999998e-01 2.6538252671381026e+00 7.4474723055262138e-01 1.4550417931296218e+01 0 1 -1
5308 1770 3 4.0999999999999998e-01 3.1796630656504923e+00 6.6573426635290565e+00 1.7677084366310176e+01 -3 -1 -1
4485 1495 3 4.0999999999999998e-01 3.6376040550842017e+00 5.9353298519049558e+00 1.1347692244214372e+01 3 0 -3
5310 1770 3 4.0999999999999998e-01 3.9232376331320586e+00 5.3848744035030291e+00 1.8476446477838305e+01 -3 -1 -1
5785 1929 3 4.0999999999999998e-01 6.0014522520734390e+00 7.2916947673636279e-01 2.0274140863460737e+01 2 -4 -3
2753 918 4 -8.1999999999999995e-01 8.5036901637650750e+00 9.5169082041734896e+00 1.5950347963005084e+01 3 -3 0
4651 1551 3 4.0999999999999998e-01 2.5388371885252234e+00 8.5382823660268947e-01 1.2109302831103628e+01 4 5 1
2083 695 3 4.0999999999999998e-01 8.2594749638776648e+00 8.0758214668439923e+00 1.9309616784426343e+01 2 2 3
385 129 3 4.0999999999999998e-01 4.6385222015937373e+00 1.5840371044787815e-01 1.8904312619569438e+01 1 4 3
1475 492 4 -8.1999999999999995e-01 2.1460355224106249e+00 1.0371963973195061e+01 1.9469766164370149e+01 0 1 -6
4673 1558 4 -8.1999999999999995e-01 1.2606666329679361e+00 3.8980815782394247e+00 1.6583430276943382e+01 2 2 2
4653 1551 3 4.0999999999999998e-01 1.4656259914061416e+00 1.9173830299925871e+00 1.2764670363374828e+01 4 5 1
4724 1575 4 -8.1999999999999995e-01 6.7099726469368619e+00 1.5281777537366155e+00 1.7064537878568942e+01 2 -4 3
2085 695 3 4.0999999999999998e-01 9.4240137537344548e+00 6.9498954282345773e+00 1.8945319987724957e+01 2 2 3
5852 1951 4 -8.1999999999999995e-01 9.1883642546140258e+00 7.7887830862908081e-01 1.9960620464646610e+01 -1 2 3
4747 1583 3 4.0999999999999998e-01 1.3238311854127427e+00 8.2373860349417924e+00 1.6274501985601056e+01 1 0 4
6258 2086 3 4.0999999999999998e-01 7.4342145774769519e-01 9.8035722418347362e+00 1.1566713159385623e+01 -3 0 0
1936 646 3 4.0999999999999998e-01 3.5320442762150246e+00 2.7919636599771627e+00 1.8403219825741488e+01 1 0 1
6009 2003 3 4.0999999999999998e-01 9.5339838727227963e+00 8.0722863987835378e+00 1.1731271267846521e+01 -1 2 -3
2166 722 3 4.0999999999999998e-01 7.9874748809983096e+00 9.7344475401728161e+00 1.2028374074047703e+01 3 -1 0
1937 646 4 -8.1999999999999995e-01 3.4519820067902756e+00 3.6311828773175137e+00 1.9025453589655758e+01 1 0 1
5178 1726 3 4.0999999999999998e-01 2.3135915626579640e+00 7.7152077996978727e+00 1.3530805646104064e+01 -1 -3 0
3896 1299 4 -8.1999999999999995e-01 1.0181798483307734e+01 4.2831286709511032e+00 1.6588012096439719e+01 -1 -1 1
4484 1495 4 -8.1999999999999995e-01 4.0079634660644503e+00 4.9877900773740764e+00 1.1511653678718503e+01 3 0 -3
4652 1551 4 -8.1999999999999995e-01 2.2677308644450291e+00 1.3440506712079912e+00 1.2915742509946741e+01 4 5 1
6007 2003 3 4.0999999999999998e-01 9.1540297200656973e+00 6.6487159427320730e+00 1.1003260001045925e+01 -1 2 -3
4723 1575 3 4.0999999999999998e-01 6.6468692361694774e+00 1.9527373436185076e+00 1.6126670288943128e+01 2 -4 3
2048 683 4 -8.1999999999999995e-01 7.0201720711720261e+00 2.7561644236690661e+00 1.4797392137557946e+01 0 3 -2
3537 1179 3 4.0999999999999998e-01 6.1614338226083154e+00 6.0057431734950333e+00 1.5974913336614968e+01 -1 1 1
2047 683 3 4.0999999999999998e-01 7.6016417380197971e+00 2.9454393875043468e+00 1.4008256249089456e+01 0 3 -2
5510 1837 4 -8.1999999999999995e-01 6.5435520359182275e+00 8.8805575569897854e+00 1.2560742564138330e+01 1 2 2
1592 531 4 -8.1999999999999995e-01 4.8060278631429094e+00 8.6502721921127375e+00 1.5107885272198198e+01 5 -2 0
1122 374 3 4.0999999999999998e-01 5.4100090677976720e-01 2.9113923921781431e+00 1.7539269823253942e+01 3 -1 -5
4373 1458 4 -8.1999999999999995e-01 3.0591580503522788e+00 1.9861101487519761e-01 1.5309430007614468e+01 0 1 -1
4725 1575 3 4.0999999999999998e-01 7.1800236374854185e+00 2.2552186453967944e+00 1.7654229063138359e+01 2 -4 3
197 66 4 -8.1999999999999995e-01 8.4697781209451257e+00 4.2218385323000502e+00 1.2879086104666019e+01 -1 0 4
1234 412 3 4.0999999999999998e-01 7.4111464906847795e+00 5.1111322977207441e-01 1.2887763524087186e+01 -3 0 4
6257 2086 4 -8.1999999999999995e-01 3.7525057188577732e-01 9.4506724248711933e+00 1.0650162818454669e+01 -3 0 0
1593 531 3 4.0999999999999998e-01 5.2004417337144906e+00 8.2774193955558353e+00 1.6011202921676034e+01 5 -2 0
6363 2121 3 4.0999999999999998e-01 3.7469233488508644e+00 7.5528165385788815e-01 1.6628845332302177e+01 -1 1 -1
2385 795 3 4.0999999999999998e-01 9.6717677261832546e-01 9.0650387937496149e+00 1.3622774476510678e+01 1 -1 -2
3469 1157 3 4.0999999999999998e-01 2.9036168894700860e+00 5.1117219865007124e+00 1.4360432017647801e+01 -3 1 4
1938 646 3 4.0999999999999998e-01 3.0787984679369917e+00 3.3907657981729171e+00 1.9911759154403764e+01 1 0 1
6667 2223 3 4.0999999999999998e-01 5.3728901331308769e+00 5.5305795952963823e+00 1.2386081715614246e+01 2 0 1
6669 2223 3 4.0999999999999998e-01 6.9594172299083441e+00 5.2814174204724580e+00 1.2628314122216048e+01 2 0 1
308 103 4 -8.1999999999999995e-01 6.9808548263284571e+00 7.6682997306733700e+00 2.0891133461636297e+01 -3 -2 4
1477 493 3 4.0999999999999998e-01 9.5721312058961168e+00 6.6684261590980025e+00 1.3465061540735151e+01 0 2 1
1573 525 3 4.0999999999999998e-01 9.9085340857975641e+00 9.8387945225366913e+00 1.5040702773922597e+01 2 0 1
1235 412 4 -8.1999999999999995e-01 6.4561232807273097e+00 2.4362640751531972e-01 1.2746706523886706e+01 -3 0 4
1236 412 3 4.0999999999999998e-01 5.9196300299542441e+00 1.0106883971154046e+00 1.2361196207522083e+01 -3 0 4
957 319 3 4.0999999999999998e-01 9.6490985430385656e+00 1.2926487496101398e+00 1.2939972976186654e+01 1 2 2
6502 2168 3 4.0999999999999998e-01 9.8889421442397545e+00 2.4640432449997194e+00 2.0398657361554346e+01 0 1 2
6503 2168 4 -8.1999999999999995e-01 1.0384005026889417e+01 3.3397537038690497e+00 2.0680919909836039e+01 0 1 2
3277 1093 3 4.0999999999999998e-01 4.2326513053861001e+00 8.1711747890652902e+00 1.1267927740714599e+01 6 4 -2
4160 1387 4 -8.1999999999999995e-01 1.0532202170296364e+01 1.0293242367608022e+01 1.8159561058901879e+01 -1 3 -2
1574 525 4 -8.1999999999999995e-01 1.0424911086829676e+01 1.0426245001725791e+01 1.4381039497052054e+01 2 0 1
4174 1392 3 4.0999999999999998e-01 2.0624777093275454e-01 2.3306526846926356e+00 2.0024947937582624e+01 -1 0 0
5786 1929 4 -8.1999999999999995e-01 6.6819598148364863e+00 1.2908779371017149e+00 2.0866858646593059e+01 2 -4 -3
3197 1066 4 -8.1999999999999995e-01 1.0573880549868289e+01 6.2439804117940234e+00 2.0136188484694205e+01 -3 -1 -1
3648 1216 3 4.0999999999999998e-01 1.0520871154683554e+01 4.7996298463382919e-01 1.8448059059201274e+01 -1 1 -1
4159 1387 3 4.0999999999999998e-01 9.9326979435149187e+00 1.0450674925939046e+01 1.8978241265731974e+01 -1 3 -2
2365 789 3 4.0999999999999998e-01 2.2006810451357079e+00 1.0546435336844127e+01 1.6846372919020109e+01 -3 1 3
5787 1929 3 4.0999999999999998e-01 6.3877727013537973e+00 2.2754797893078820e+00 2.0954105680847331e+01 2 -4 -3
4681 1561 3 4.0999999999999998e-01 3.2219979607299765e+00 1.0255639384923245e+00 2.2036059662398905e+01 1 -2 3
3824 1275 4 -8.1999999999999995e-01 2.3442077466009263e+00 3.7652783293469083e+00 2.1690471934648752e+01 3 0 -3
6076 2026 3 4.0999999999999998e-01 3.1682850118963124e-01 8.5392316486801221e+00 2.4082313773443662e+01 -1 1 0
3302 1101 4 -8.1999999999999995e-01 4.8501123491058511e+00 6.5579725091756176e+00 2.4911885894140507e+01 1 -3 0
1017 339 3 4.0999999999999998e-01 2.0919254041655631e+00 6.9399547659351759e+00 2.1183936745094485e+01 4 0 3
2308 770 3 4.0999999999999998e-01 1.0306113348363457e+01 7.4737571035885555e+00 2.8183723742859883e+01 0 -1 -1
2662 888 3 4.0999999999999998e-01 8.3207450689512417e+00 1.9758140137270659e+00 2.9712098233462292e+01 3 -2 2
3301 1101 3 4.0999999999999998e-01 4.0221391564076390e+00 6.0160600925442704e+00 2.5208795992478301e+01 1 -3 0
1663 555 3 4.0999999999999998e-01 3.7951219042621127e+00 1.9377683322411905e+00 2.6116166063958307e+01 -1 -2 -4
3825 1275 3 4.0999999999999998e-01 2.2890515104170688e+00 4.8042842604471057e+00 2.1525714387139654e+01 3 0 -3
5780 1927 4 -8.1999999999999995e-01 6.3943635343734435e+00 1.6222115860897782e-01 2.9254382280052255e+01 -1 1 0
6449 2150 4 -8.1999999999999995e-01 9.3486994814910567e+00 6.0014441730639598e+00 3.0610045161483065e+01 1 0 2
6641 2214 4 -8.1999999999999995e-01 1.5980069590856427e+00 9.5121020525474620e+00 2.9237584350427625e+01 0 -1 4
1675 559 3 4.0999999999999998e-01 2.5276745740448803e-01 6.2587315282291893e+00 2.7778572958416369e+01 1 2 -3
2885 962 4 -8.1999999999999995e-01 1.8797774932707154e+00 7.3035272913374856e+00 2.4327909343654415e+01 1 5 -3
3400 1134 3 4.0999999999999998e-01 8.9031204131513295e+00 7.6432116631463662e+00 2.6090447615121633e+01 -1 0 -2
2886 962 3 4.0999999999999998e-01 2.1853495415809969e+00 6.3904461134638746e+00 2.4659527688517272e+01 1 5 -3