LAMMPS data file via write_data, version 5 Jun 2019, timestep = 1000000

7349 atoms
5 atom types
4899 bonds
2 bond types
2451 angles
2 angle types
1 impropers
1 improper types

1.5519297081455363e-01 4.1845807029189409e+01 xlo xhi
1.5469297081455124e-01 4.1845307029189406e+01 ylo yhi
1.5469297081455124e-01 4.1845307029189406e+01 zlo zhi

#Masses
#
#1 12.01
#2 40.08
#3 1.01
#4 16
#5 16
#
#Bond Coeffs # harmonic
#
#1 20.4246 1.3042
#2 22.965 1.012

Atoms # full

1332 444 3 4.0999999999999998e-01 9.0176921709275568e+00 2.3713177671911165e-01 3.5140826334363657e+00 1 1 1
4115 1372 4 -8.1999999999999995e-01 8.8789439941034214e+00 8.2563210493793282e-01 8.5286551002478905e+00 1 0 -1
6604 2202 3 4.0999999999999998e-01 3.6975180917158155e+00 7.8433879633644663e+00 6.6036295504390958e+00 1 -1 1
3401 1134 4 -8.1999999999999995e-01 7.3697455596485542e+00 7.5979817391230142e+00 6.2560595507682759e+00 0 0 0
1237 413 3 4.0999999999999998e-01 9.4097157853146580e+00 9.5855623540311328e+00 4.5778810823516682e+00 1 -1 1
5826 1942 3 4.0999999999999998e-01 7.9473658508488372e+00 4.4538039555775448e+00 5.5314229976803730e+00 1 1 1
5988 1996 3 4.0999999999999998e-01 7.0108382687049540e+00 7.1527337189048481e+00 4.2520115041876085e+00 1 0 1
3426 1142 3 4.0999999999999998e-01 4.2567902677127503e+00 8.1045093713495953e-01 9.2633752984178237e+00 0 2 0
6605 2202 4 -8.1999999999999995e-01 3.3195494626673456e+00 8.5355643256835521e+00 5.9150972777685196e+00 1 -1 1
980 327 4 -8.1999999999999995e-01 8.9234788019665459e+00 1.1480293488773703e+00 5.0129481692504552e+00 -1 1 1
3368 1123 4 -8.1999999999999995e-01 8.9732149064863336e+00 9.3107039775910092e+00 7.7835419732237474e+00 -1 -1 0
3565 1189 3 4.0999999999999998e-01 5.8053953163674459e+00 7.1320632734902807e+00 7.2161840134343205e+00 0 1 0
6024 2008 3 4.0999999999999998e-01 3.7720605298688152e+00 1.6060135974187455e+00 7.1226929440639326e+00 1 2 1
6023 2008 4 -8.1999999999999995e-01 2.9885331947047828e+00 2.0284424999777828e+00 6.5669512712429201e+00 1 2 1
5651 1884 4 -8.1999999999999995e-01 7.9488001331788052e+00 8.8023409524346299e+00 3.7114723892874102e-01 0 -1 0
4611 1537 3 4.0999999999999998e-01 6.3620094551134390e+00 1.3414570876524650e+00 4.1604158331541443e+00 1 1 0
3566 1189 4 -8.1999999999999995e-01 5.2355889176440282e+00 6.7468408764250460e+00 7.9799430091691859e+00 0 1 0
3369 1123 3 4.0999999999999998e-01 9.3558037827249443e+00 1.0250724042002370e+01 7.5998382575945591e+00 -1 -1 0
3160 1054 3 4.0999999999999998e-01 5.3169356408477535e+00 9.2901924824392594e+00 9.1454714668129018e+00 1 0 -1
4594 1532 3 4.0999999999999998e-01 3.0846455971034730e+00 5.8347295248601876e+00 1.2998971384026978e+00 1 0 0
3425 1142 4 -8.1999999999999995e-01 4.6015598220220397e+00 8.4682321309832853e-01 8.3195777427598365e+00 0 2 0
2250 750 3 4.0999999999999998e-01 8.6536651237844098e-01 3.0295041543078387e+00 9.1660779782490280e+00 0 1 -1
4468 1490 3 4.0999999999999998e-01 6.9983341115980480e+00 5.7453053672346632e+00 2.1214641793782683e+00 0 1 0
6962 2321 4 -8.1999999999999995e-01 4.3676132184203817e+00 4.9230542475803887e+00 2.3546624541172947e+00 0 1 0
981 327 3 4.0999999999999998e-01 8.2558656050387000e+00 1.8966278857634251e+00 5.1399608817176903e+00 -1 1 1
3162 1054 3 4.0999999999999998e-01 4.5145965054205757e+00 7.8972264543734365e+00 8.8696523375389482e+00 1 0 -1
6647 2216 4 -8.1999999999999995e-01 3.9103655518079412e+00 2.8267142890678327e+00 3.9027354488033565e+00 0 0 2
5650 1884 3 4.0999999999999998e-01 7.4222057490776283e+00 9.4357844948512799e+00 8.9200604308685560e-01 0 -1 0
5342 1781 4 -8.1999999999999995e-01 6.8439180113339608e+00 5.7519375397687549e+00 9.7731612442679801e+00 1 0 1
3908 1303 4 -8.1999999999999995e-01 2.3796609740339512e+00 9.0853805075667076e+00 1.0714013522618144e+00 0 -1 -1
5155 1719 3 4.0999999999999998e-01 1.0424838524985539e+01 7.9361325777230061e+00 1.7898135954902081e+00 1 -1 1
2099 700 4 -8.1999999999999995e-01 9.3571528661186978e+00 3.3209713595071730e+00 9.4936218310044185e-01 0 -1 0
2021 674 4 -8.1999999999999995e-01 6.6562151500989888e+00 1.0451030095721508e+01 8.3335923432935495e+00 1 0 1
4038 1346 3 4.0999999999999998e-01 9.2393734501809242e+00 4.7619184253047182e+00 8.3047281870998368e+00 1 1 -1
6832 2278 3 4.0999999999999998e-01 2.2999718105496503e+00 9.7301131098567613e+00 7.3417805883176257e+00 0 0 1
38 13 4 -8.1999999999999995e-01 6.3118485410195104e+00 9.4150026132142592e+00 2.6633894013743018e+00 1 0 1
4334 1445 4 -8.1999999999999995e-01 6.6189850715150280e+00 2.5516460790021944e+00 9.4832896617531937e+00 1 0 -1
1505 502 4 -8.1999999999999995e-01 5.8130369046730057e-01 9.6974249486998634e+00 1.0040677689750236e+01 0 1 1
4037 1346 4 -8.1999999999999995e-01 9.6582318308750974e+00 5.1661243060871067e+00 9.1451018552965451e+00 1 1 -1
5987 1996 4 -8.1999999999999995e-01 7.0496749888883770e+00 6.8710969056443458e+00 3.2971249612984326e+00 1 0 1
4469 1490 4 -8.1999999999999995e-01 6.9286468121057583e+00 4.8873501091433020e+00 1.5318482248438821e+00 0 1 0
5189 1730 4 -8.1999999999999995e-01 3.6165426576402990e+00 1.6559795565189315e+00 1.4546023944955024e+00 1 0 0
1722 574 3 4.0999999999999998e-01 4.3941810008656672e+00 7.1903037073797211e+00 2.8724448960819502e+00 1 -1 -1
3907 1303 3 4.0999999999999998e-01 1.6187306872787159e+00 9.7859245406007034e+00 1.2698200789867209e+00 0 -1 -1
4695 1565 3 4.0999999999999998e-01 2.1070318252825686e+00 1.0068326756223836e+01 5.0433957408217340e+00 -1 1 0
3909 1303 3 4.0999999999999998e-01 1.9083724900479599e+00 8.1531433453242972e+00 1.0823753700089533e+00 0 -1 -1
4070 1357 4 -8.1999999999999995e-01 6.0620365175694220e+00 2.4091121038431260e+00 5.6219761874033001e+00 1 0 0
4071 1357 3 4.0999999999999998e-01 5.1690143127451202e+00 2.8311659349709646e+00 5.3202735742293044e+00 1 0 0
3161 1054 4 -8.1999999999999995e-01 4.4058406974005617e+00 8.8711739004010770e+00 9.2968060449840717e+00 1 0 -1
2426 809 4 -8.1999999999999995e-01 2.1049266768540087e-01 1.6569049601526937e+00 8.3023468561224139e+00 1 1 1
5824 1942 3 4.0999999999999998e-01 9.2433132724821778e+00 5.1192208131312844e+00 6.2053007575745909e+00 1 1 1
268 90 3 4.0999999999999998e-01 2.1966587622231284e+00 1.3894366524852801e+00 5.4771844305057584e+00 0 0 1
3424 1142 3 4.0999999999999998e-01 5.3882015458089940e+00 2.2515634137283830e-01 8.1317255481690758e+00 0 2 0
1822 608 3 4.0999999999999998e-01 3.2766240252797494e+00 5.3949672801619215e+00 7.3974387823165246e+00 0 1 1
1823 608 4 -8.1999999999999995e-01 2.5909984539477193e+00 4.7077273646201228e+00 7.3233988663282981e+00 0 1 1
6834 2278 3 4.0999999999999998e-01 8.3464057065799868e-01 1.0562350776011996e+01 6.9339250996644646e+00 0 0 1
3400 1134 3 4.0999999999999998e-01 7.6255602742622060e+00 6.5980010892341907e+00 6.2288257501065560e+00 0 0 0
5190 1730 3 4.0999999999999998e-01 3.9147383846821828e+00 2.0706333836808453e+00 5.8516450512191243e-01 1 0 0
6961 2321 3 4.0999999999999998e-01 4.0703706952554057e+00 4.1198888074119706e+00 2.8869913319248304e+00 0 1 0
2249 750 4 -8.1999999999999995e-01 1.4979092804234952e+00 3.7947568072108240e+00 9.4582017339823654e+00 0 1 -1
4595 1532 4 -8.1999999999999995e-01 2.2613105154622324e+00 6.2678385745145846e+00 8.9332710283556815e-01 1 0 0
4753 1585 3 4.0999999999999998e-01 1.3157046104419434e+00 4.8045831129814429e+00 6.4388064847418898e+00 0 0 -1
3402 1134 3 4.0999999999999998e-01 8.0055450667478478e+00 8.1158247479573991e+00 6.9152736967840163e+00 0 0 0
6648 2216 3 4.0999999999999998e-01 3.5483939436869378e+00 2.4711405194909819e+00 2.9793391950563413e+00 0 0 2
6022 2008 3 4.0999999999999998e-01 2.6181080441913447e+00 2.8027128781175485e+00 7.1231117783042484e+00 1 2 1
30 10 3 4.0999999999999998e-01 9.9727577676791661e+00 1.0251656853305768e+01 1.0413242610977009e+00 0 0 0
6606 2202 3 4.0999999999999998e-01 3.2259654206573081e+00 8.0538830987609948e+00 5.0319062951532727e+00 1 -1 1
5825 1942 4 -8.1999999999999995e-01 8.2478493026194641e+00 4.9640452317716033e+00 6.3679601043746477e+00 1 1 1
4333 1445 3 4.0999999999999998e-01 5.8758261814659623e+00 1.9205389720907551e+00 9.7217608531599033e+00 1 0 -1
4755 1585 3 4.0999999999999998e-01 9.7732182086862951e-01 4.9554758484789856e+00 4.8113710517636230e+00 0 0 -1
1387 463 3 4.0999999999999998e-01 9.3082681521357191e+00 3.0108527295786152e+00 1.0477825440797503e+01 -1 -1 0
4609 1537 3 4.0999999999999998e-01 5.3581615090762247e+00 1.1155471615490697e+00 2.8943376558229374e+00 1 1 0
2116 706 3 4.0999999999999998e-01 1.0355854365153615e+01 2.9517225568675283e+00 2.2218136690050923e+00 1 1 1
5341 1781 3 4.0999999999999998e-01 6.4251143853699784e+00 4.8180842026509216e+00 9.5414164098903171e+00 1 0 1
5156 1719 4 -8.1999999999999995e-01 1.0044194776340451e+01 8.8575842769375797e+00 2.0031549550407060e+00 1 -1 1
1506 502 3 4.0999999999999998e-01 9.0096540978598827e-01 1.0087038962681731e+01 9.1661645534907397e+00 0 1 1
5986 1996 3 4.0999999999999998e-01 7.1251897776660664e+00 7.7787257936851804e+00 2.8167949538463399e+00 1 0 1
6963 2321 3 4.0999999999999998e-01 5.3925109075214053e+00 4.7720808356756486e+00 2.1597838226863368e+00 0 1 0
1681 561 3 4.0999999999999998e-01 1.4945037347691787e+00 5.8714532244446227e+00 2.3536493497267936e+00 1 0 0
3367 1123 3 4.0999999999999998e-01 9.5282550572751319e+00 8.9540108711996513e+00 8.5446846826912868e+00 -1 -1 0
1682 561 4 -8.1999999999999995e-01 6.9325938546115107e-01 5.7357710562385602e+00 2.9594088557007661e+00 1 0 0
5343 1781 3 4.0999999999999998e-01 7.8229138696480893e+00 5.7004709542653860e+00 9.6030946281685932e+00 1 0 1
5188 1730 3 4.0999999999999998e-01 3.1366929525611709e+00 7.7568899635813005e-01 1.2803011053362090e+00 1 0 0
37 13 3 4.0999999999999998e-01 5.4440524415644775e+00 9.0014601344189913e+00 2.9971246114469992e+00 1 0 1
5903 1968 4 -8.1999999999999995e-01 8.4936469915468980e+00 4.1133991594086234e+00 3.7225160887713673e+00 0 0 -1
1721 574 4 -8.1999999999999995e-01 3.8891075807301605e+00 7.9681121940194313e+00 3.2608640996656648e+00 1 -1 -1
2248 750 3 4.0999999999999998e-01 1.9820828669500623e+00 3.4909565674764274e+00 1.0310352326077753e+01 0 1 -1
6646 2216 3 4.0999999999999998e-01 3.4579584527086049e+00 2.3579634479955542e+00 4.6995455434273454e+00 0 0 2
979 327 3 4.0999999999999998e-01 9.7092069806915191e+00 1.3044726367226827e+00 5.6902816555232274e+00 -1 1 1
5915 1972 4 -8.1999999999999995e-01 1.0210193962681810e+01 8.9729281442940110e+00 1.0462656757114985e+01 -1 0 -1
4641 1547 3 4.0999999999999998e-01 4.5114541756041220e+00 9.7358032012022111e+00 6.0897207411645971e+00 0 0 1
3567 1189 3 4.0999999999999998e-01 5.8814024413280004e+00 6.2170153179753349e+00 8.5717652590481404e+00 0 1 0
4069 1357 3 4.0999999999999998e-01 6.0659463433466536e+00 2.4040672695887384e+00 6.6429372579461781e+00 1 0 0
1720 574 3 4.0999999999999998e-01 3.2573834200952700e+00 8.4549625310414118e+00 2.5944391402364513e+00 1 -1 -1
4610 1537 4 -8.1999999999999995e-01 6.0294163815178203e+00 6.2154132084675984e-01 3.4529628327753876e+00 1 1 0
2022 674 3 4.0999999999999998e-01 7.5599983060424920e+00 9.8751871958795139e+00 8.1284750079382526e+00 1 0 1
6833 2278 4 -8.1999999999999995e-01 1.5499293395901828e+00 1.0347251110938519e+01 7.6506846888244739e+00 0 0 1
5904 1968 3 4.0999999999999998e-01 7.8270894049872535e+00 4.2277547317483899e+00 2.9617327130869122e+00 0 0 -1
5892 1964 3 4.0999999999999998e-01 2.1795139021842633e-01 1.0232293872787718e+01 3.8676209324135127e+00 -1 0 1
4116 1372 3 4.0999999999999998e-01 9.7490099374830184e+00 8.4028521378482246e-01 7.9552144494790724e+00 1 0 -1
5902 1968 3 4.0999999999999998e-01 9.4524807482067370e+00 3.9442515098614495e+00 3.3963837894311748e+00 0 0 -1
269 90 4 -8.1999999999999995e-01 1.8228990823795124e+00 8.2053751740529968e-01 4.7051619460818603e+00 0 0 1
2427 809 3 4.0999999999999998e-01 9.5402795775107652e-01 1.1527320189189463e+00 7.8282059515625075e+00 1 1 1
4978 1660 3 4.0999999999999998e-01 3.5737894426616040e-01 9.0401389565172441e-01 4.1328613926754931e+00 2 0 2
4335 1445 3 4.0999999999999998e-01 7.4888126159143003e+00 2.1714585287428183e+00 9.0473576799337376e+00 1 0 -1
4754 1585 4 -8.1999999999999995e-01 5.4372492428108155e-01 4.9297033893718165e+00 5.7467668474646274e+00 0 0 -1
1824 608 3 4.0999999999999998e-01 2.0296410749604004e+00 4.4691732212262130e+00 8.1968126067847304e+00 0 1 1
2098 700 3 4.0999999999999998e-01 8.4602346868051743e+00 3.7427887724040638e+00 1.1387857773119590e+00 0 -1 0
5652 1884 3 4.0999999999999998e-01 8.8488767033597675e+00 8.7452788957510563e+00 8.8492811047661346e-01 0 -1 0
39 13 3 4.0999999999999998e-01 6.1293891678674850e+00 1.0400100355152599e+01 2.5525714055356574e+00 1 0 1
4470 1490 3 4.0999999999999998e-01 6.9096252614272533e+00 5.1959287032948600e+00 5.5926923136303763e-01 0 1 0
6934 2312 3 4.0999999999999998e-01 5.3830123089152151e+00 5.6260905142574229e+00 1.6723700709727051e+01 1 0 1
2181 727 3 4.0999999999999998e-01 4.9541314844384104e-01 6.8776591286438595e+00 1.8953208050264053e+01 0 1 1
2180 727 4 -8.1999999999999995e-01 3.6418493823667203e-01 6.0036546512749549e+00 1.9454390620795277e+01 0 1 1
1199 400 4 -8.1999999999999995e-01 8.2829823321403495e+00 7.6406523126237076e+00 1.4034630754997515e+01 -1 0 2
345 115 3 4.0999999999999998e-01 4.3835160509549249e+00 1.9864304887295881e+00 1.7885008027004055e+01 -1 1 -1
4687 1563 3 4.0999999999999998e-01 3.4382600271024542e+00 3.5023009064737463e+00 1.1955116593943721e+01 -1 0 -1
3214 1072 3 4.0999999999999998e-01 3.4584761463196738e+00 9.3055901728565207e+00 1.0631579433768493e+01 1 0 1
1478 493 4 -8.1999999999999995e-01 8.6043247182661258e+00 8.9920395830026507e+00 1.6240905307614604e+01 0 1 0
3520 1174 3 4.0999999999999998e-01 7.9134658068217592e+00 3.6095923676038311e+00 1.3332056113293318e+01 1 1 -1
6712 2238 3 4.0999999999999998e-01 3.4099570399792514e+00 7.8821585787255604e+00 1.2591524104009515e+01 1 1 0
1757 586 4 -8.1999999999999995e-01 4.4371735116456703e+00 8.2140219538600405e+00 1.5982819045103858e+01 0 0 0
6890 2297 4 -8.1999999999999995e-01 5.0040158716311920e+00 3.1960764168905813e+00 1.8757712301936802e+01 0 1 0
6714 2238 3 4.0999999999999998e-01 4.3490055570846096e+00 7.9507251330986417e+00 1.4080845993648023e+01 1 1 0
279 93 3 4.0999999999999998e-01 4.4563486086179669e+00 4.0478702857857085e+00 1.3862985665324578e+01 2 0 1
3131 1044 4 -8.1999999999999995e-01 8.2786584601094706e+00 4.4432044452688686e+00 1.6634859001951927e+01 1 0 1
5946 1982 3 4.0999999999999998e-01 7.8307858543044082e+00 6.4700853430716689e+00 2.0390813707427817e+01 1 -1 0
7003 2335 3 4.0999999999999998e-01 8.2706806728018005e+00 2.2012732174143577e+00 1.6832260523585262e+01 0 0 2
5274 1758 3 4.0999999999999998e-01 9.4037244716649191e+00 8.1531631553609110e+00 2.0133914236540576e+01 0 0 0
7004 2335 4 -8.1999999999999995e-01 8.1869379882409792e+00 1.1874368429899727e+00 1.6964989333658107e+01 0 0 2
6891 2297 3 4.0999999999999998e-01 4.5947042101771975e+00 3.9139112239432063e+00 1.8134599294359152e+01 0 1 0
5068 1690 3 4.0999999999999998e-01 4.2490595768106665e-01 8.0097148341362079e+00 1.7143383096626305e+01 -1 1 0
942 314 3 4.0999999999999998e-01 7.3349035119275818e+00 4.3394006391108535e+00 1.9875563719245001e+01 0 1 1
3396 1132 3 4.0999999999999998e-01 5.0846592128914514e+00 2.0006796835484071e+00 1.5411449736665043e+01 1 0 0
3056 1019 4 -8.1999999999999995e-01 7.2527070156188076e+00 1.2045374470206021e+00 2.0629249558741964e+01 1 0 0
3093 1031 3 4.0999999999999998e-01 2.5289541077084441e+00 7.9585636930986183e+00 1.8889990072739600e+01 0 0 -1
1756 586 3 4.0999999999999998e-01 3.9097586182726962e+00 8.9270127817685108e+00 1.5468117658083917e+01 0 0 0
357 119 3 4.0999999999999998e-01 1.5282108833209322e+00 2.7943421087672826e+00 2.0501204788076343e+01 -1 1 0
1388 463 4 -8.1999999999999995e-01 9.8081717496128391e+00 2.5659080912286965e+00 1.1245243064737164e+01 -1 -1 0
3637 1213 3 4.0999999999999998e-01 7.9675754363810629e+00 9.7820799872342761e+00 1.7575730463154571e+01 1 1 0
3521 1174 4 -8.1999999999999995e-01 8.8117769799242289e+00 3.6280620842723428e+00 1.3861063878616221e+01 1 1 -1
1198 400 3 4.0999999999999998e-01 7.5545452599920884e+00 7.7183938412800392e+00 1.3304959231277357e+01 -1 0 2
4345 1449 3 4.0999999999999998e-01 1.0506808696627091e+01 1.0461119795421778e+01 1.6835394253350337e+01 2 0 0
5273 1758 4 -8.1999999999999995e-01 1.0193845176239085e+01 8.7527330349864130e+00 2.0329502419277116e+01 0 0 0
3639 1213 3 4.0999999999999998e-01 8.3304938110212312e+00 1.0384421736238052e+01 1.9118198314595386e+01 1 1 0
6108 2036 3 4.0999999999999998e-01 9.9891790124483322e+00 4.9634169432129527e+00 1.4782835011339925e+01 0 1 -1
4988 1663 4 -8.1999999999999995e-01 4.9401265971908366e+00 1.0131086265690232e+01 1.8167691293647781e+01 0 0 0
1758 586 3 4.0999999999999998e-01 4.6780693370376776e+00 8.8424987499705416e+00 1.6790100816604841e+01 0 0 0
6006 2002 3 4.0999999999999998e-01 3.2886426303932326e+00 5.7107605130079460e+00 1.6838081535460553e+01 1 2 0
1353 451 3 4.0999999999999998e-01 2.3537582088659232e+00 1.0175715795709753e+01 1.4426490765534089e+01 1 0 0
3055 1019 3 4.0999999999999998e-01 6.8291278759808565e+00 1.6242728321692912e+00 1.9782770501219112e+01 1 0 0
4000 1334 3 4.0999999999999998e-01 2.8348730733625547e+00 1.3890644548481343e+00 1.1205448407292423e+01 2 2 1
6005 2002 4 -8.1999999999999995e-01 3.8321479676084937e+00 5.4482000812397473e+00 1.7703047821729182e+01 1 2 0
1017 339 3 4.0999999999999998e-01 2.9395913273293894e+00 6.4631645108736899e+00 1.4341968827922001e+01 0 0 0
4688 1563 4 -8.1999999999999995e-01 2.5733237497130177e+00 2.9309092794038842e+00 1.1795765641102319e+01 -1 0 -1
5283 1761 3 4.0999999999999998e-01 4.2078556485067026e-01 6.4554339478427671e+00 1.1060177932075787e+01 0 0 2
4001 1334 4 -8.1999999999999995e-01 3.1346885445977368e+00 6.2852593837415660e-01 1.0593278977057306e+01 2 2 1
3285 1095 3 4.0999999999999998e-01 1.8830226196104600e+00 5.3449918235027738e-01 1.5173482158205012e+01 1 1 0
3132 1044 3 4.0999999999999998e-01 7.9005719000960415e+00 4.2997473454508937e+00 1.7612387759492830e+01 1 0 1
6107 2036 4 -8.1999999999999995e-01 1.0398604703428292e+01 5.4979459910294270e+00 1.5542919712671305e+01 0 1 -1
5994 1998 3 4.0999999999999998e-01 6.6762500807978853e+00 3.0871942562354660e+00 1.1101638997038480e+01 0 1 1
3638 1213 4 -8.1999999999999995e-01 7.6055774284958773e+00 1.0178508734865355e+01 1.8467964231610079e+01 1 1 0
4989 1663 3 4.0999999999999998e-01 5.9027431703039319e+00 1.0013039392294292e+01 1.8310511750380854e+01 0 0 0
5916 1972 3 4.0999999999999998e-01 9.4136377208976132e+00 8.6498184980613484e+00 1.1028269503010122e+01 -1 0 -1
355 119 3 4.0999999999999998e-01 2.3243104432509831e+00 1.3054042579484770e+00 2.0045507768910621e+01 -1 1 0
1389 463 3 4.0999999999999998e-01 9.3786445817511677e+00 2.9637347315606277e+00 1.2067016158259859e+01 -1 -1 0
1236 412 3 4.0999999999999998e-01 6.8180981905003746e+00 6.6337745274620428e+00 1.1171846230736129e+01 1 0 2
6713 2238 4 -8.1999999999999995e-01 4.0886999688053534e+00 7.4113178624184544e+00 1.3257708046241454e+01 1 1 0
1794 598 3 4.0999999999999998e-01 5.5590992159650288e-01 3.6287619220486191e+00 1.3927681642143439e+01 0 0 1
277 93 3 4.0999999999999998e-01 4.3153726946928241e+00 5.5685671368173768e+00 1.3131343798256454e+01 2 0 1
7005 2335 3 4.0999999999999998e-01 9.0804289699489580e+00 7.4391600271506619e-01 1.6904230054943536e+01 0 0 2
3283 1095 3 4.0999999999999998e-01 1.7023863298607300e+00 2.2524649754650459e+00 1.5210884210231297e+01 1 1 0
6004 2002 3 4.0999999999999998e-01 3.8441580528359198e+00 6.2991631682100389e+00 1.8250606755073417e+01 1 2 0
1235 412 4 -8.1999999999999995e-01 6.5418547112587140e+00 7.2562445121939243e+00 1.1939560846734448e+01 1 0 2
6889 2297 3 4.0999999999999998e-01 5.9135834434620929e+00 3.6457420962042977e+00 1.8986745639594993e+01 0 1 0
5944 1982 3 4.0999999999999998e-01 7.5858211408357983e+00 7.4948788390016423e+00 1.9026212751236411e+01 1 -1 0
343 115 3 4.0999999999999998e-01 3.1545535002712395e+00 1.0397767841128529e+00 1.7074347269955044e+01 -1 1 -1
4689 1563 3 4.0999999999999998e-01 2.0990491674547598e+00 3.2205405111597165e+00 1.2668765817949364e+01 -1 0 -1
278 93 4 -8.1999999999999995e-01 4.4013230010772171e+00 4.5958695035467061e+00 1.2932640630793340e+01 2 0 1
3216 1072 3 4.0999999999999998e-01 2.1600387621231274e+00 9.8564508810400149e+00 1.1148817072118842e+01 1 0 1
5587 1863 3 4.0999999999999998e-01 1.0890035739692290e+00 4.8208648400890377e+00 2.0353314884163396e+01 0 0 -1
6935 2312 4 -8.1999999999999995e-01 6.1337104741180042e+00 5.8170338125949375e+00 1.6013388712065673e+01 1 0 1
3522 1174 3 4.0999999999999998e-01 8.5757042294640780e+00 3.7290826275752034e+00 1.4882063788148349e+01 1 1 -1
3394 1132 3 4.0999999999999998e-01 3.6343297479076617e+00 2.5147816950858259e+00 1.5036887080324641e+01 1 0 0
5993 1998 4 -8.1999999999999995e-01 6.8317177144498693e+00 3.4731478712378192e+00 1.2052880057330217e+01 0 1 1
5518 1840 3 4.0999999999999998e-01 9.4438257409588502e+00 8.6312526536677758e+00 1.3828521431544488e+01 1 1 2
940 314 3 4.0999999999999998e-01 8.4535218137827446e+00 3.2499003374822624e+00 1.9330455871783304e+01 0 1 1
5992 1998 3 4.0999999999999998e-01 5.9042178470210578e+00 3.8732293003766149e+00 1.2346579610247669e+01 0 1 1
344 115 4 -8.1999999999999995e-01 4.0177042490999035e+00 9.9957425118117205e-01 1.7699787367634922e+01 -1 1 -1
1792 598 3 4.0999999999999998e-01 1.9664006679749451e+00 4.4797853218918116e+00 1.4552089375074223e+01 0 0 1
941 314 4 -8.1999999999999995e-01 7.6174924356121076e+00 3.7331490659755926e+00 1.9113524609796407e+01 0 1 1
5069 1690 4 -8.1999999999999995e-01 1.0062561478399457e+00 8.2186061166507969e+00 1.8028382832697435e+01 -1 1 0
323 108 4 -8.1999999999999995e-01 1.0015060232228940e+01 2.6397821625420059e+00 1.9645642694028098e+01 -1 0 1
3130 1044 3 4.0999999999999998e-01 7.5463705944934754e+00 5.1138965007211032e+00 1.6303150684705638e+01 1 0 1
1908 636 3 4.0999999999999998e-01 3.3974895040808456e-01 1.2152457809621979e+00 1.9156806809718734e+01 0 2 0
6936 2312 3 4.0999999999999998e-01 5.9758465761469495e+00 6.7415782788842309e+00 1.5555728456753419e+01 1 0 1
3092 1031 4 -8.1999999999999995e-01 3.4957157548486615e+00 7.9516591779568380e+00 1.9234463647148882e+01 0 0 -1
1479 493 3 4.0999999999999998e-01 9.4607209548663462e+00 8.5126604131274597e+00 1.6472806281769987e+01 0 1 0
6106 2036 3 4.0999999999999998e-01 9.7596639177950664e+00 5.1690493509094670e+00 1.6321589542190139e+01 0 1 -1
3091 1031 3 4.0999999999999998e-01 3.8756080927267202e+00 8.8213918250179031e+00 1.8879640845828430e+01 0 0 -1
1015 339 3 4.0999999999999998e-01 1.6104178578086557e+00 6.4886157866633836e+00 1.5225577217538511e+01 0 0 0
1793 598 4 -8.1999999999999995e-01 1.5493107019306911e+00 3.5677638724896834e+00 1.4332893525778012e+01 0 0 1
5519 1840 4 -8.1999999999999995e-01 1.0236506458098500e+01 9.3036007523241722e+00 1.3612589700698997e+01 1 1 2
373 125 3 4.0999999999999998e-01 4.6819891276496568e+00 3.1708437236612390e+00 2.0479310770442883e+01 1 -1 1
1200 400 3 4.0999999999999998e-01 8.0678083945337775e+00 6.8518341129771283e+00 1.4577468540660275e+01 -1 0 2
3395 1132 4 -8.1999999999999995e-01 4.5976889877582234e+00 2.7658472511829282e+00 1.4945076831177468e+01 1 0 0
322 108 3 4.0999999999999998e-01 9.7471900094493567e+00 2.5331626973764916e+00 2.0683569203366531e+01 -1 0 1
1016 339 4 -8.1999999999999995e-01 2.5462654548908663e+00 6.1222542265508322e+00 1.5218382368125987e+01 0 0 0
1477 493 3 4.0999999999999998e-01 8.2656560398968999e+00 8.6965012311716698e+00 1.5299148635895056e+01 0 1 0
5945 1982 4 -8.1999999999999995e-01 8.1490550757456752e+00 7.2677996622986383e+00 1.9827479855478938e+01 1 -1 0
1352 451 4 -8.1999999999999995e-01 3.3678885000483350e+00 1.0153284269078560e+01 1.4544281286045276e+01 1 0 0
356 119 4 -8.1999999999999995e-01 1.4437160964356288e+00 1.7720523710376119e+00 2.0128301424927290e+01 -1 1 0
3284 1095 4 -8.1999999999999995e-01 2.2028585782757695e+00 1.4077902889717815e+00 1.5617712596862429e+01 1 1 0
1234 412 3 4.0999999999999998e-01 5.6071596039784932e+00 7.0788791519347249e+00 1.2244801745124779e+01 1 0 2
3215 1072 4 -8.1999999999999995e-01 3.0756412454940389e+00 9.6869108451264534e+00 1.1490091383015416e+01 1 0 1
5070 1690 3 4.0999999999999998e-01 1.6272392843573347e+00 9.0462246354724751e+00 1.7947873672870490e+01 -1 1 0
3569 1190 4 -8.1999999999999995e-01 7.0346499807949847e-01 1.0376381473184452e+01 1.5805693458534087e+01 0 0 0
3015 1005 3 4.0999999999999998e-01 1.0381068464010093e+01 7.9187673499415889e-01 1.1588570678413070e+01 1 2 0
6702 2234 3 4.0999999999999998e-01 4.8945223023491691e+00 1.0361228998667196e+01 1.2445554996545468e+01 0 0 0
3057 1019 3 4.0999999999999998e-01 6.9244238665369560e+00 2.1600180332985985e-01 2.0902749541490536e+01 1 0 0
1313 438 4 -8.1999999999999995e-01 3.6863280483960619e+00 7.1857090562090065e+00 2.2267665441799487e+01 2 0 0
1359 453 3 4.0999999999999998e-01 8.0076036579803169e+00 1.3286568761421127e+00 2.5188656061318568e+01 0 0 1
3588 1196 3 4.0999999999999998e-01 2.4559933692138496e+00 9.3741984368414482e+00 2.9629726893647664e+01 -1 0 -1
387 129 3 4.0999999999999998e-01 3.2621128693716579e+00 9.6298176292655402e+00 2.4785040716797987e+01 0 1 0
5162 1721 4 -8.1999999999999995e-01 4.4567921910369082e+00 9.1284117029043543e-01 3.0203878092872138e+01 0 1 0
329 110 4 -8.1999999999999995e-01 3.2280525799522866e+00 3.4776582747137077e+00 2.5917067880171963e+01 1 0 -1
3076 1026 3 4.0999999999999998e-01 4.2167457836491379e-01 5.5970423748086988e+00 2.7517085472258525e+01 1 0 -1
4217 1406 4 -8.1999999999999995e-01 7.3851077686470745e+00 8.8993294518253503e+00 3.0704840081028138e+01 0 0 0
4825 1609 3 4.0999999999999998e-01 5.7859717715275645e+00 1.9019552817553420e+00 2.9504721708469813e+01 1 1 0
328 110 3 4.0999999999999998e-01 3.4309335163836199e+00 2.5156887640841443e+00 2.6223412839122123e+01 1 0 -1
7083 2361 3 4.0999999999999998e-01 2.1358048141034938e+00 7.8307402742638805e+00 2.3211971760958395e+01 1 -1 0
374 125 4 -8.1999999999999995e-01 4.0865948033939636e+00 3.2140057714491896e+00 2.1303706385666253e+01 1 -1 1
4863 1621 3 4.0999999999999998e-01 5.4743958871672778e+00 4.0109124142162713e+00 2.8508286495206001e+01 0 1 1
1771 591 3 4.0999999999999998e-01 9.5009086253815198e+00 8.7120354328313354e+00 2.8377388179047081e+01 2 0 -1
4191 1397 3 4.0999999999999998e-01 5.8923235256559767e+00 5.7218669793914492e+00 3.0632970128093326e+01 1 0 -1
1274 425 4 -8.1999999999999995e-01 2.4798920520790577e-01 5.3763256678478593e+00 2.3653924743429332e+01 0 1 0
6372 2124 3 4.0999999999999998e-01 2.8449035273080696e+00 4.9729171474396278e-01 2.6938972219898041e+01 1 1 0
2077 693 3 4.0999999999999998e-01 9.6869444072578244e+00 9.2850383092285593e-01 2.2334167956059719e+01 2 1 0
375 125 3 4.0999999999999998e-01 3.1330886389858632e+00 3.5099291783727238e+00 2.1033865161683337e+01 1 -1 1
7248 2416 3 4.0999999999999998e-01 9.0628992281390648e+00 1.0045869582413689e+01 2.1035124684348325e+01 1 0 1
4279 1427 3 4.0999999999999998e-01 6.2287645981738438e-01 4.2878432119833171e-01 2.2799383816588151e+01 0 0 1
3586 1196 3 4.0999999999999998e-01 2.5580040118785612e+00 8.6111113139299409e+00 2.8096100848495446e+01 -1 0 -1
1430 477 4 -8.1999999999999995e-01 9.8677707157689341e+00 9.6599289237346735e+00 2.3991031609256439e+01 1 0 1
4799 1600 4 -8.1999999999999995e-01 7.3762098329107255e+00 5.6877437428122670e+00 2.4328709574525782e+01 0 -1 -1
6742 2248 3 4.0999999999999998e-01 1.0093937393160175e+01 5.7219221935365381e+00 2.3271116661553435e+01 1 0 -1
15 5 3 4.0999999999999998e-01 3.3991835716976532e-01 7.0035181877818573e+00 3.0456425419675014e+01 1 0 -1
7034 2345 4 -8.1999999999999995e-01 7.3271281732017437e+00 8.4792752870223733e+00 2.4541635418963679e+01 -1 -1 0
2298 766 3 4.0999999999999998e-01 4.4408664840891614e+00 7.4241251749414481e+00 2.3829318395654365e+01 2 0 1
1273 425 3 4.0999999999999998e-01 4.6761402902103555e-01 4.3880936383649107e+00 2.3917653629619775e+01 0 1 0
4800 1600 3 4.0999999999999998e-01 8.2661974050441192e+00 5.4232035790008908e+00 2.3929070455973662e+01 0 -1 -1
4951 1651 3 4.0999999999999998e-01 1.4435847683689134e+00 1.9543770697577876e+00 2.3743196493551288e+01 0 1 1
4798 1600 3 4.0999999999999998e-01 6.6700736778894711e+00 5.0113638864343262e+00 2.4026069211039111e+01 0 -1 -1
4861 1621 3 4.0999999999999998e-01 4.6530084964693401e+00 4.0400018981533155e+00 2.7029723844413390e+01 0 1 1
4555 1519 3 4.0999999999999998e-01 8.3157117120847790e+00 5.0864615516526586e+00 2.1988288913763075e+01 0 -1 -1
1723 575 3 4.0999999999999998e-01 6.8590064478747843e+00 5.5827978820957558e+00 2.7825370730645659e+01 1 1 0
1921 641 3 4.0999999999999998e-01 1.0258057029695868e+01 8.1075119871330470e-01 2.5442218850041364e+01 -1 1 -1
5588 1863 4 -8.1999999999999995e-01 1.6749970990241685e+00 4.2643054223751564e+00 2.1051594701174892e+01 0 0 -1
5163 1721 3 4.0999999999999998e-01 3.9464458319808284e+00 1.1499657381827746e+00 3.1043002563044112e+01 0 1 0
4743 1581 3 4.0999999999999998e-01 3.8465489690302856e-01 9.3450720470036419e+00 2.3264454651690507e+01 1 0 1
7082 2361 4 -8.1999999999999995e-01 1.2274758886599506e+00 7.8755840688322047e+00 2.3598996352418293e+01 1 -1 0
6743 2248 4 -8.1999999999999995e-01 9.6306280745112662e+00 4.8801263939272461e+00 2.2981128726062096e+01 1 0 -1
4827 1609 3 4.0999999999999998e-01 6.5031467994591337e+00 3.1346248788231934e+00 3.0199000536476003e+01 1 1 0
1773 591 3 4.0999999999999998e-01 8.6676430470357460e+00 9.1824218300318492e+00 2.9668874343292302e+01 2 0 -1
5044 1682 3 4.0999999999999998e-01 4.9874200760237333e+00 3.7130825884824556e+00 2.2667836783278304e+01 -1 1 0
3387 1129 3 4.0999999999999998e-01 2.4485507105799305e+00 4.6193396857471782e+00 2.6994602282609890e+01 -1 0 -1
4685 1562 4 -8.1999999999999995e-01 6.9926466040479989e+00 9.4287839609223543e+00 2.7374788434713803e+01 1 -1 0
1725 575 3 4.0999999999999998e-01 7.4483441123703162e+00 5.3182833118305428e+00 2.6233077682562865e+01 1 1 0