LAMMPS data file via write_data, version 5 Jun 2019, timestep = 3000000

7349 atoms
5 atom types
4899 bonds
2 bond types
2451 angles
2 angle types
1 impropers
1 improper types

1.5519297081455363e-01 4.1845807029189409e+01 xlo xhi
1.5469297081455124e-01 4.1845307029189406e+01 ylo yhi
1.5469297081455124e-01 4.1845307029189406e+01 zlo zhi

#Masses
#
#1 12.01
#2 40.08
#3 1.01
#4 16
#5 16
#
#Bond Coeffs # harmonic
#
#1 20.4246 1.3042
#2 22.965 1.012

Atoms # full

506 169 4 -8.1999999999999995e-01 4.8912728892344215e-01 9.8274005657690164e+00 9.0302092014964739e+00 1 1 1
6461 2154 4 -8.1999999999999995e-01 9.7122399409749764e+00 8.6262804889684279e+00 2.6421660341498119e+00 0 0 2
4141 1381 3 4.0999999999999998e-01 6.7225009087811065e+00 5.4100591195238552e+00 6.6468545730985689e+00 0 2 -2
3594 1198 3 4.0999999999999998e-01 3.6314507824384008e+00 4.1969109185659521e+00 8.9082164702207010e+00 3 0 0
214 72 3 4.0999999999999998e-01 4.5418189123550032e+00 2.1053331743154553e+00 4.0199186038433101e+00 0 0 0
26 9 4 -8.1999999999999995e-01 6.4776522334795983e-01 7.0831784262106519e+00 9.7691297724528106e+00 0 0 1
1340 447 4 -8.1999999999999995e-01 6.0468501371888204e+00 5.0463328891369983e+00 1.8600469962487864e+00 1 2 -1
363 121 3 4.0999999999999998e-01 7.7425104567280156e+00 5.1240973343032925e+00 4.4858725922197733e+00 0 -1 1
5197 1733 3 4.0999999999999998e-01 2.8209045092991900e+00 9.5145741426253014e+00 3.2135166705125875e+00 -1 1 2
1499 500 4 -8.1999999999999995e-01 4.7369191093256209e+00 7.2786538032123707e+00 3.1872414929461779e+00 2 0 0
4142 1381 4 -8.1999999999999995e-01 6.0134641571745577e+00 5.4174335204717936e+00 7.4319176991262754e+00 0 2 -2
3258 1086 3 4.0999999999999998e-01 3.2905511810803918e+00 3.8736342887281467e+00 5.0762400118645479e+00 1 0 0
3628 1210 3 4.0999999999999998e-01 1.8685549985151603e-01 2.3062012686420639e+00 9.3376924009679509e+00 -1 -1 1
4143 1381 3 4.0999999999999998e-01 5.6449837172777544e+00 6.3608202065797137e+00 7.6466314679488345e+00 0 2 -2
7079 2360 4 -8.1999999999999995e-01 2.8281361832129570e+00 1.3847540329245691e+00 7.2883869016541469e+00 2 0 0
5199 1733 3 4.0999999999999998e-01 1.2670501128494696e+00 9.0365951918496847e+00 2.9254787178259853e+00 -1 1 2
4888 1630 3 4.0999999999999998e-01 1.0232783193847954e+01 8.2377307778670517e+00 5.6224390668992736e+00 1 2 0
327 109 3 4.0999999999999998e-01 3.3455741698375807e-01 1.7797752270101406e+00 2.6779018791038101e+00 2 0 -1
1212 404 3 4.0999999999999998e-01 8.6391874910635860e+00 3.3842610269850053e+00 7.4967944073586787e+00 1 1 2
4839 1613 3 4.0999999999999998e-01 5.4364217670688459e+00 8.3981729419288964e+00 4.3601277572941362e+00 2 0 0
3257 1086 4 -8.1999999999999995e-01 3.2979408084780326e+00 4.1758739503265829e+00 6.0599088033124549e+00 1 0 0
1211 404 4 -8.1999999999999995e-01 9.4744390288314140e+00 2.9893964564667770e+00 7.9581415805258038e+00 1 1 2
4473 1491 3 4.0999999999999998e-01 1.0427869712233832e+01 9.5784750349100740e+00 8.0540770598831095e+00 2 -1 0
1006 336 3 4.0999999999999998e-01 2.5964364059014757e+00 3.2925118846749388e+00 3.1859195818364201e+00 0 -1 0
2024 675 4 -8.1999999999999995e-01 2.8674650422512289e+00 1.7284789287225635e+00 3.6930892071829091e-01 0 0 1
3220 1074 3 4.0999999999999998e-01 5.5294626175714594e+00 6.2578014862792086e+00 6.9734925231849498e-01 -1 0 1
507 169 3 4.0999999999999998e-01 1.3507169226700257e+00 1.0366566803109595e+01 8.8727336511452588e+00 1 1 1
2288 763 4 -8.1999999999999995e-01 8.2237450356060986e+00 6.9871373482196986e-01 5.1395128994013479e+00 1 1 1
6462 2154 3 4.0999999999999998e-01 9.5395059772360487e+00 8.1662679027853091e+00 1.7178292398848067e+00 0 0 2
5642 1881 4 -8.1999999999999995e-01 9.6297003323941732e-01 7.6978377283035737e+00 1.1912429002015426e+00 0 0 1
6146 2049 4 -8.1999999999999995e-01 2.1420440538031875e+00 4.6634658485918177e+00 8.5662608657491326e+00 0 0 3
348 116 3 4.0999999999999998e-01 4.4093425014804293e+00 2.1205845679145345e+00 8.6001454377483200e-01 2 1 -2
215 72 4 -8.1999999999999995e-01 5.1796507949821287e+00 1.3564163908583546e+00 4.3589697448239368e+00 0 0 0
325 109 3 4.0999999999999998e-01 1.7427943658877791e+00 2.3339967803294135e+00 1.7161643079524740e+00 2 0 -1
1874 625 4 -8.1999999999999995e-01 4.1969243538288605e+00 1.0024254307907528e+01 9.6688531220565981e+00 -1 2 -1
605 202 4 -8.1999999999999995e-01 2.0656776377469970e+00 6.8822088486964228e+00 3.7517101442190781e+00 0 0 2
4889 1630 4 -8.1999999999999995e-01 9.5071612003256600e+00 7.7234665784227072e+00 5.0591055133998362e+00 1 2 0
1028 343 4 -8.1999999999999995e-01 6.9697816262634227e+00 9.0821689210579812e+00 9.9160187842588350e+00 0 1 2
1294 432 3 4.0999999999999998e-01 4.1375748067451861e+00 9.3822434806815256e+00 6.2036328505462830e+00 0 0 1
1912 638 3 4.0999999999999998e-01 2.4526294105404545e+00 6.7581429909299136e+00 1.0466063268772674e+01 -2 0 1
346 116 3 4.0999999999999998e-01 5.6554042463751273e+00 1.9063334140523520e+00 1.8301396583899598e+00 2 1 -2
7323 2441 3 4.0999999999999998e-01 8.9497579789589672e+00 4.7899951674833439e+00 2.0419256890117992e+00 0 0 0
7078 2360 3 4.0999999999999998e-01 2.0462692485873895e+00 1.4316619159017772e+00 7.9507786058798464e+00 2 0 0
1210 404 3 4.0999999999999998e-01 9.3417511634171060e+00 2.6507887800560304e+00 8.9403697980046672e+00 1 1 2
6119 2040 4 -8.1999999999999995e-01 9.5389050223096614e+00 1.0492170483557974e+01 9.4380167120976441e+00 1 0 0
5198 1733 4 -8.1999999999999995e-01 1.8329263492883769e+00 9.7841267584048293e+00 3.3881586935966124e+00 -1 1 2
2977 993 3 4.0999999999999998e-01 9.2038395551965486e+00 4.2342544782586361e-01 3.0222018397202373e+00 0 2 0
6120 2040 3 4.0999999999999998e-01 8.8340265558995288e+00 9.9130652458953783e+00 9.8790432470551988e+00 1 0 0
4693 1565 3 4.0999999999999998e-01 1.7961448981907244e+00 8.3344741614391822e+00 6.7496021355122506e+00 -1 3 -1
5344 1782 3 4.0999999999999998e-01 4.3518060403336252e+00 6.6146586563826135e+00 9.0288735836438061e+00 1 1 -1
5345 1782 4 -8.1999999999999995e-01 4.6071813167484699e+00 7.4202999764656710e+00 8.4827850162581129e+00 1 1 -1
6147 2049 3 4.0999999999999998e-01 2.5094868137312187e+00 4.7182334278920166e+00 7.6557871861518834e+00 0 0 3
7080 2360 3 4.0999999999999998e-01 3.1870879745820861e+00 2.3107745343279031e+00 6.9563498800158570e+00 2 0 0
1008 336 3 4.0999999999999998e-01 3.9971807000134181e+00 4.1310761205329918e+00 2.7112113132836244e+00 0 -1 0
6145 2049 3 4.0999999999999998e-01 1.4920051291850775e+00 5.4184376471556863e+00 8.5115879067397398e+00 0 0 3
5641 1881 3 4.0999999999999998e-01 1.4110569132194146e+00 7.2608685416310683e+00 2.0241901432842391e+00 0 0 1
3629 1210 4 -8.1999999999999995e-01 8.2873035086020885e-01 1.5535286716640186e+00 9.0410833969954414e+00 -1 -1 1
1027 343 3 4.0999999999999998e-01 7.0696218190490479e+00 8.8407899171302979e+00 8.9239417986174114e+00 0 1 2
3040 1014 3 4.0999999999999998e-01 1.9289695696748246e+00 4.2739300083898613e-01 5.7871790345686467e+00 0 1 2
6460 2154 3 4.0999999999999998e-01 9.7628431844212713e+00 9.6614920222261773e+00 2.5075694523783501e+00 0 0 2
5346 1782 3 4.0999999999999998e-01 4.5355339428364339e+00 8.2326544770302483e+00 9.0808243325357587e+00 1 1 -1
361 121 3 4.0999999999999998e-01 8.2449885446401829e+00 6.4684166829979670e+00 5.1515290859737091e+00 0 -1 1
4421 1474 4 -8.1999999999999995e-01 9.3305675008462217e+00 7.2378872798616749e+00 3.0666867883456755e-01 -1 0 2
6745 2249 3 4.0999999999999998e-01 4.5675427462029239e+00 8.8040544810906329e+00 2.4883339626347176e+00 1 -1 0
3549 1183 3 4.0999999999999998e-01 6.5686645376453603e+00 8.5842925360696007e+00 6.4755757906917930e+00 -2 0 -1
1295 432 4 -8.1999999999999995e-01 3.3423652962907764e+00 9.2648567589516002e+00 6.8715104506444220e+00 0 0 1
3630 1210 3 4.0999999999999998e-01 8.4487647588892412e-01 9.2477165775508763e-01 9.8850632120975295e+00 -1 -1 1
7322 2441 4 -8.1999999999999995e-01 8.5699813781884728e+00 4.3285339714938766e+00 2.8747368030898151e+00 0 0 0
216 72 3 4.0999999999999998e-01 5.4781819369778688e+00 8.0353614530342354e-01 3.5183970792063146e+00 0 0 0
6747 2249 3 4.0999999999999998e-01 4.8675681054478890e+00 1.0496754813517303e+01 2.8760039056662823e+00 1 -1 0
4694 1565 4 -8.1999999999999995e-01 1.4078118996529290e+00 7.4293742897819994e+00 6.4290664510879045e+00 -1 3 -1
1094 365 4 -8.1999999999999995e-01 9.4380137444955565e+00 4.4665061495957952e+00 1.9266276739509902e-01 1 0 2
4838 1613 4 -8.1999999999999995e-01 5.6171569799031067e+00 8.9578485653216120e+00 5.2315988879237310e+00 2 0 0
326 109 4 -8.1999999999999995e-01 1.2543339128009694e+00 2.3057746264999204e+00 2.6718280602022664e+00 2 0 -1
1500 500 3 4.0999999999999998e-01 5.1279519595701180e+00 6.3928560164880182e+00 2.8160093754566962e+00 2 0 0
606 202 3 4.0999999999999998e-01 1.4241033806868924e+00 6.1866413314595237e+00 3.4664848392502892e+00 0 0 2
1007 336 4 -8.1999999999999995e-01 3.5402089940849657e+00 3.6017190861165611e+00 3.5107138532640763e+00 0 -1 0
3548 1183 4 -8.1999999999999995e-01 7.1130369898538870e+00 8.2278736176207392e+00 7.2921080625075243e+00 -2 0 -1
4837 1613 3 4.0999999999999998e-01 5.8842281260174110e+00 9.9090116529483581e+00 4.9322194783591069e+00 2 0 0
5643 1881 3 4.0999999999999998e-01 4.7056001521592272e-01 6.8860101203361195e+00 7.0178533344402771e-01 0 0 1
3593 1198 4 -8.1999999999999995e-01 4.6219896093450767e+00 4.2018457472814532e+00 9.2974467702640364e+00 3 0 0
1339 447 3 4.0999999999999998e-01 5.9238207865431436e+00 4.0925653119293939e+00 1.5359003115720586e+00 1 2 -1
4890 1630 3 4.0999999999999998e-01 9.5251212496588664e+00 8.0795798476828562e+00 4.0737256384245297e+00 1 2 0
7321 2441 3 4.0999999999999998e-01 9.4133297925729860e+00 3.8653740472378937e+00 3.2104579371998070e+00 0 0 0
1296 432 3 4.0999999999999998e-01 3.6159691982579720e+00 8.4401635152813554e+00 7.3842136154346898e+00 0 0 1
783 261 3 4.0999999999999998e-01 7.4594677226901336e+00 9.8369316064858769e-01 9.0433760766898832e+00 -1 1 2
1341 447 3 4.0999999999999998e-01 6.9998569146703824e+00 4.9051815321442218e+00 2.2990144423179233e+00 1 2 -1
347 116 4 -8.1999999999999995e-01 5.3709737083948790e+00 2.4533800508245975e+00 1.0680075818723183e+00 2 1 -2
3547 1183 3 4.0999999999999998e-01 7.9838732387201841e+00 7.8939607299364143e+00 6.9062459467291859e+00 -2 0 -1
3256 1086 3 4.0999999999999998e-01 4.2204195169648226e+00 4.4371736357243794e+00 6.3239717723465176e+00 1 0 0
362 121 4 -8.1999999999999995e-01 7.5281340027107086e+00 5.7191648223812672e+00 5.3138479854143430e+00 0 -1 1
6746 2249 4 -8.1999999999999995e-01 4.4261183286470391e+00 9.7843443092470004e+00 2.2588400592478037e+00 1 -1 0
3592 1198 3 4.0999999999999998e-01 5.2210739385140617e+00 4.5221799490812247e+00 8.5293018850897226e+00 3 0 0
5670 1890 3 4.0999999999999998e-01 4.3658953510318055e+00 3.1419614683207214e-01 7.2081171920016196e+00 1 0 2
1498 500 3 4.0999999999999998e-01 3.7816322789094126e+00 6.9991735276965228e+00 3.5130979643884923e+00 2 0 0
604 202 3 4.0999999999999998e-01 1.8102849350609429e+00 6.9972390781550988e+00 4.7698737389364450e+00 0 0 2
782 261 4 -8.1999999999999995e-01 7.6221985380068604e+00 3.3377110157390255e-01 8.2861542159999555e+00 -1 1 2
175 59 3 4.0999999999999998e-01 9.7078090153220327e+00 1.1954523635984715e+00 5.6589913935870495e+00 -1 0 0
177 59 3 4.0999999999999998e-01 1.0297886259154007e+01 2.2277645617352717e+00 6.7715344657325955e+00 -1 0 0
5668 1890 3 4.0999999999999998e-01 5.1485116919640781e+00 6.1041108638601327e-01 5.8525427429263512e+00 1 0 2
4221 1407 3 4.0999999999999998e-01 2.1276148313124148e+00 1.0368781205902220e+01 6.2496465533701571e+00 0 -2 -1
2979 993 3 4.0999999999999998e-01 1.0350278234205541e+01 1.3674391892831659e+00 2.3739378800456579e+00 0 2 0
7186 2396 3 4.0999999999999998e-01 8.0379650678798527e+00 6.7689264624519687e+00 1.0151711850452454e+01 0 1 0
2978 993 4 -8.1999999999999995e-01 9.8165620305274377e+00 5.5309410760341504e-01 2.2309743554625898e+00 0 2 0
4695 1565 3 4.0999999999999998e-01 4.3316161649874108e-01 7.5365483862291889e+00 6.0764212573787457e+00 -1 3 -1
2287 763 3 4.0999999999999998e-01 7.3301246506793687e+00 1.2420319574516085e+00 5.1922566642040113e+00 1 1 1
1875 625 3 4.0999999999999998e-01 3.5045665931576999e+00 9.8105587160001075e+00 1.0452340758422025e+01 -1 2 -1
1029 343 3 4.0999999999999998e-01 6.0184524376527779e+00 9.4726746739081538e+00 1.0106127791732302e+01 0 1 2
27 9 3 4.0999999999999998e-01 8.2137490437641636e-01 7.9825304264876626e+00 9.2826051386757324e+00 0 0 1
5700 1900 3 4.0999999999999998e-01 3.7781211150836236e-01 5.4373580439253386e+00 6.1006373532569826e+00 -1 1 -2
4422 1474 3 4.0999999999999998e-01 9.6319481837189258e+00 6.2368413342470053e+00 2.6951898386341355e-01 -1 0 2
1432 478 3 4.0999999999999998e-01 8.9792439749544695e+00 1.7832207634564650e+00 1.5678582727710118e+01 0 0 0
2844 948 3 4.0999999999999998e-01 4.3788281931229029e+00 9.1739480017625308e+00 1.5977107622714124e+01 0 -1 -1
4771 1591 3 4.0999999999999998e-01 1.7384408230644799e+00 9.6626290817989624e-01 2.0198054359751470e+01 1 1 1
74 25 4 -8.1999999999999995e-01 1.8800627839366169e+00 7.5850735375891967e+00 1.4593647267420041e+01 0 0 -1
2585 862 4 -8.1999999999999995e-01 5.6973234708549283e+00 3.3997017986826727e+00 1.3620792486341646e+01 1 1 1
4035 1345 3 4.0999999999999998e-01 7.9664166149941886e+00 5.3107162779907977e+00 1.5714464013291549e+01 -1 0 -1
4120 1374 3 4.0999999999999998e-01 8.7651150087496044e-01 7.6780220378683484e-01 1.6996542747908446e+01 0 0 -1
1996 666 3 4.0999999999999998e-01 5.4904799000954325e+00 2.7260079454505753e-01 1.8891907316966687e+01 -1 0 -1
2659 887 3 4.0999999999999998e-01 8.2470094706802399e+00 1.0446729619048478e+00 1.9650312787269140e+01 0 1 0
1914 638 3 4.0999999999999998e-01 3.3222409266571136e+00 6.1173269358017102e+00 1.1728928843313028e+01 -2 0 1
5882 1961 4 -8.1999999999999995e-01 4.1462856923732518e+00 3.2990196892136154e+00 1.8962834915523796e+01 -1 -1 0
6326 2109 4 -8.1999999999999995e-01 1.0157824562754158e+01 1.5193665528429368e+00 1.4132726418243237e+01 -1 1 -2
1434 478 3 4.0999999999999998e-01 8.3852962856443600e+00 5.9737024345766920e-01 1.6487740143353733e+01 0 0 0
1856 619 4 -8.1999999999999995e-01 4.6717725042573806e+00 8.4707137813195335e+00 1.2422547551510730e+01 -2 -1 -1
5086 1696 3 4.0999999999999998e-01 1.2331827280881569e+00 2.9398118875785504e+00 1.7785936861400234e+01 0 1 0
2606 869 4 -8.1999999999999995e-01 1.8771943113983727e+00 9.3017110592875802e+00 2.0635948555924227e+01 1 0 -2
904 302 3 4.0999999999999998e-01 2.3429275428105867e+00 7.5499158886103492e+00 2.0953351737767481e+01 2 3 0
856 286 3 4.0999999999999998e-01 2.8745375012687222e+00 2.6598036265202669e+00 1.1695064948454069e+01 0 1 0
2584 862 3 4.0999999999999998e-01 5.8728954980801529e+00 2.3857828279000213e+00 1.3466610860198335e+01 1 1 1
4199 1400 4 -8.1999999999999995e-01 8.3045435617657724e+00 5.2169297190748019e+00 1.7243270185187651e+01 0 1 0
2842 948 3 4.0999999999999998e-01 5.7396498351346867e+00 8.2647232456773878e+00 1.5421576558450013e+01 0 -1 -1
547 183 3 4.0999999999999998e-01 6.6238866875431794e+00 1.7868455619107348e+00 1.7102246164534630e+01 -1 0 1
6931 2311 3 4.0999999999999998e-01 4.9062494768783846e+00 1.0077075962758963e+00 1.2262148220788205e+01 2 0 1
2661 887 3 4.0999999999999998e-01 8.5109772103871464e+00 1.9321046955757430e+00 1.8174930142253107e+01 0 1 0
2120 707 4 -8.1999999999999995e-01 4.3534935199583877e+00 5.9171812704372675e+00 1.7344272045560334e+01 0 0 1
710 237 4 -8.1999999999999995e-01 1.6630484738152558e+00 5.6897341816956910e+00 1.6820730268145578e+01 0 1 1
1425 475 3 4.0999999999999998e-01 9.9207518851050800e+00 1.0145640452794982e+01 1.6644781114585658e+01 -1 0 -1
711 237 3 4.0999999999999998e-01 2.6750519596315252e+00 5.7579441594425722e+00 1.7069656619912074e+01 0 1 1
5883 1961 3 4.0999999999999998e-01 4.2672300505904426e+00 4.3010376781065531e+00 1.9050570858139345e+01 -1 -1 0
5095 1699 3 4.0999999999999998e-01 1.0176460944563306e+01 8.4521481485846159e+00 1.2282105258637737e+01 0 1 0
1855 619 3 4.0999999999999998e-01 4.3460009201126537e+00 7.7315462401939259e+00 1.1806212617769228e+01 -2 -1 -1
7280 2427 4 -8.1999999999999995e-01 5.8168674160720135e+00 5.8182803958038845e+00 1.9575113209612603e+01 0 1 1
1382 461 4 -8.1999999999999995e-01 4.0993961521588522e+00 3.5979008116020443e+00 1.5706807624542913e+01 -2 0 1
1640 547 4 -8.1999999999999995e-01 7.1270254544792824e+00 9.2453271777148665e+00 1.7957897102049518e+01 -1 0 0
6983 2328 4 -8.1999999999999995e-01 2.7453415890621963e-01 8.1719445285892558e+00 1.2446721135681406e+01 -1 0 -1
1786 596 3 4.0999999999999998e-01 6.0128859773783760e-01 1.3868710626406429e+00 1.4702437324906745e+01 0 1 1
404 135 4 -8.1999999999999995e-01 6.5943255766550672e+00 4.2934556296275641e+00 1.1332731188872733e+01 0 0 0
2121 707 3 4.0999999999999998e-01 4.9144808883640776e+00 5.8934900249314399e+00 1.8252267212146510e+01 0 0 1
4761 1587 3 4.0999999999999998e-01 6.8989409017583885e+00 1.3618217601970339e+00 1.1480584803236725e+01 -1 1 0
1217 406 4 -8.1999999999999995e-01 6.8377512886105292e+00 7.8371020398806515e+00 1.3884643903397672e+01 1 0 2
1568 523 4 -8.1999999999999995e-01 1.8881750744622394e-01 1.0332195372079342e+01 1.8132260439841090e+01 1 1 1
4923 1641 3 4.0999999999999998e-01 8.4297070196475996e+00 8.1271970175530424e+00 1.8777332671501462e+01 -1 1 0
2586 862 3 4.0999999999999998e-01 5.0336462285305990e+00 3.3710385042351985e+00 1.4455993608125093e+01 1 1 1
1383 461 3 4.0999999999999998e-01 4.3256399424090430e+00 4.2986351339247362e+00 1.6435710614415264e+01 -2 0 1
2260 754 3 4.0999999999999998e-01 7.4190386308042662e+00 2.9635611783226978e+00 2.0243414699888490e+01 2 2 0
1641 547 3 4.0999999999999998e-01 6.2918427169392634e+00 8.7375153227980284e+00 1.7593644322880660e+01 -1 0 0
4033 1345 3 4.0999999999999998e-01 7.0665804449327929e+00 4.4518012000936578e+00 1.4487024427184938e+01 -1 0 -1
5881 1961 3 4.0999999999999998e-01 4.2638628255435371e+00 2.8327702072233865e+00 1.9868600381687429e+01 -1 -1 0
5087 1696 4 -8.1999999999999995e-01 5.7436520956934667e-01 3.6033380296549784e+00 1.8257671395308606e+01 0 1 0
2119 707 3 4.0999999999999998e-01 4.6814182552151200e+00 6.8781908090585926e+00 1.6990034763611437e+01 0 0 1
2069 690 4 -8.1999999999999995e-01 8.3537957576456527e+00 9.2181505568143614e+00 1.2175571739301278e+01 0 0 1
1913 638 4 -8.1999999999999995e-01 3.3978192661294977e+00 6.6420430604564764e+00 1.0857440858516455e+01 -2 0 1
1639 547 3 4.0999999999999998e-01 7.8806288399372972e+00 9.0421072288451629e+00 1.7290245194136023e+01 -1 0 0
6327 2109 3 4.0999999999999998e-01 1.0093938298555292e+01 8.2735116195364211e-01 1.3322954418957487e+01 -1 1 -2
4034 1345 4 -8.1999999999999995e-01 7.7680372878411967e+00 5.2077754581435114e+00 1.4680622168575637e+01 -1 0 -1
1218 406 3 4.0999999999999998e-01 7.3501656089900864e+00 6.9782022205284520e+00 1.4135376846737422e+01 1 0 2
4301 1434 4 -8.1999999999999995e-01 2.8706544365460380e+00 5.4751431095042973e+00 1.3374519141707580e+01 3 1 1
1567 523 3 4.0999999999999998e-01 2.1041636174495831e-01 9.6994908837838185e+00 1.7289218086377613e+01 1 1 1
1216 406 3 4.0999999999999998e-01 7.4481482701245101e+00 8.3361811536825812e+00 1.3155034798368165e+01 1 0 2
5097 1699 3 4.0999999999999998e-01 9.8756562801820387e+00 6.9587238364674953e+00 1.1660628901971139e+01 0 1 0
549 183 3 4.0999999999999998e-01 5.2570583215141786e+00 2.0910577086967050e+00 1.7770847479187267e+01 -1 0 1
75 25 3 4.0999999999999998e-01 1.3923416962606587e+00 7.8292339242754823e+00 1.3734450899532616e+01 0 0 -1
1998 666 3 4.0999999999999998e-01 4.0559583834848469e+00 2.3877701150664876e-01 1.9554291447398612e+01 -1 0 -1
397 133 3 4.0999999999999998e-01 1.6003133629620010e+00 9.2833281119683484e+00 1.2112763180779758e+01 0 1 -3
6638 2213 4 -8.1999999999999995e-01 9.7227734969028976e+00 2.7686824979442642e-01 1.1494524831990045e+01 -2 1 0
398 133 4 -8.1999999999999995e-01 2.4169638810288423e+00 9.8384309326195094e+00 1.1756931315028776e+01 0 1 -3
7279 2427 3 4.0999999999999998e-01 6.4618740792104239e+00 5.1090161829145275e+00 1.9997595998767284e+01 0 1 1
4921 1641 3 4.0999999999999998e-01 9.9104812689810355e+00 7.3568229331696697e+00 1.8592324427474026e+01 -1 1 0
1424 475 4 -8.1999999999999995e-01 9.3120680001977387e+00 9.3210554011834503e+00 1.6563375499354137e+01 -1 0 -1
4759 1587 3 4.0999999999999998e-01 7.2636391679489236e+00 2.7106195688974606e+00 1.0760770654474854e+01 -1 1 0
4122 1374 3 4.0999999999999998e-01 2.1677279676542200e+00 9.0581273938039841e-01 1.6216629910211243e+01 0 0 -1
4772 1591 4 -8.1999999999999995e-01 2.4918418637999169e+00 9.1166541477441165e-01 1.9506370173346440e+01 1 1 1
399 133 3 4.0999999999999998e-01 3.2515522606626579e+00 9.3468484453750591e+00 1.2094126651631461e+01 0 1 -3
4895 1632 4 -8.1999999999999995e-01 1.5819927655737283e+00 3.9836361035936689e+00 1.1602545061166802e+01 1 0 1
4798 1600 3 4.0999999999999998e-01 8.0535723226532496e-01 8.2179633069904892e+00 1.5584341641508564e+01 1 -1 -1
7188 2396 3 4.0999999999999998e-01 7.9949417469014570e+00 5.5108396067296184e+00 1.1250264463947339e+01 0 1 0
1945 649 3 4.0999999999999998e-01 9.8683381099827621e+00 4.8509167121308661e+00 1.3901815400087457e+01 1 0 -1
4121 1374 4 -8.1999999999999995e-01 1.5507879091195820e+00 1.4565031139749118e+00 1.6796730290487350e+01 0 0 -1
3583 1195 3 4.0999999999999998e-01 7.1202025163455385e-01 3.1926309220894500e+00 1.9897468755274570e+01 0 -1 0
432 144 3 4.0999999999999998e-01 1.0305728790008242e+01 1.9044266655418534e+00 1.8900519706520601e+01 1 1 0
4302 1434 3 4.0999999999999998e-01 2.3091156348659880e+00 4.9160040071035924e+00 1.2680430933514653e+01 3 1 1
4922 1641 4 -8.1999999999999995e-01 8.9491135542741542e+00 7.2396204810164120e+00 1.8860064402535073e+01 -1 1 0
7281 2427 3 4.0999999999999998e-01 5.7911141802105490e+00 6.6431277006802079e+00 2.0227061849012024e+01 0 1 1
4896 1632 3 4.0999999999999998e-01 1.7067796397732899e+00 4.1495465980893513e+00 1.0602120860857758e+01 1 0 1
1857 619 3 4.0999999999999998e-01 5.4612704511575334e+00 8.0798445147869948e+00 1.2908497443560440e+01 -2 -1 -1
6637 2213 3 4.0999999999999998e-01 8.9032964810074802e+00 8.4654362670016237e-01 1.1250299829422177e+01 -2 1 0
2605 869 3 4.0999999999999998e-01 1.6173485352113648e+00 9.8645861054203774e+00 1.9764449534411050e+01 1 0 -2
4198 1400 3 4.0999999999999998e-01 8.6445763392605084e+00 5.9185595058743194e+00 1.7910794518021525e+01 0 1 0
403 135 3 4.0999999999999998e-01 6.2705237403217451e+00 4.1512775978161693e+00 1.2350111953861196e+01 0 0 0
2843 948 4 -8.1999999999999995e-01 5.1032258956124927e+00 8.4796203342367900e+00 1.6222635877070211e+01 0 -1 -1
6932 2311 4 -8.1999999999999995e-01 5.8456010382585930e+00 8.5998470083140155e-01 1.2563070282110841e+01 2 0 1
4773 1591 3 4.0999999999999998e-01 2.7578710465702305e+00 1.8652076507080975e+00 1.9250690119601746e+01 1 1 1
548 183 4 -8.1999999999999995e-01 5.9157478768395322e+00 1.3733793626914212e+00 1.7627740531276174e+01 -1 0 1
1423 475 3 4.0999999999999998e-01 9.6229764660744799e+00 8.6430161267165229e+00 1.5879577132252768e+01 -1 0 -1
3584 1195 4 -8.1999999999999995e-01 5.7529500797167787e-01 2.6116470809982633e+00 2.0785736640463831e+01 0 -1 0
1381 461 3 4.0999999999999998e-01 3.2710039133529087e+00 3.1358153857523430e+00 1.6084836300649620e+01 -2 0 1
4894 1632 3 4.0999999999999998e-01 8.5962577308670196e-01 3.2634674305443627e+00 1.1746429710420280e+01 1 0 1
709 237 3 4.0999999999999998e-01 1.5801196626623135e+00 6.4128590168463910e+00 1.6109928047464106e+01 0 1 1
5088 1696 3 4.0999999999999998e-01 9.0654005537597881e-01 4.5141404509109897e+00 1.7876833272046010e+01 0 1 0
4200 1400 3 4.0999999999999998e-01 9.0368379582034279e+00 4.5063814263574260e+00 1.7189090574439334e+01 0 1 0
7187 2396 4 -8.1999999999999995e-01 8.6170179719948532e+00 6.1984867281673299e+00 1.0740632313716951e+01 0 1 0
4300 1434 3 4.0999999999999998e-01 3.4554337997429152e+00 4.8778140531127914e+00 1.4027067969371002e+01 3 1 1
6982 2328 3 4.0999999999999998e-01 5.7679234094324405e-01 7.5939910873751186e+00 1.1673175971612837e+01 -1 0 -1
64 22 3 4.0999999999999998e-01 2.3366468687079744e+00 9.9082463965996403e+00 1.5369032404783161e+01 2 -1 0
1174 392 3 4.0999999999999998e-01 8.4519640217736285e+00 7.0317128690626713e+00 2.0579570327897343e+01 2 -1 1
4558 1520 3 4.0999999999999998e-01 3.9544243904577397e-01 5.7008122366175751e-01 1.2585094865900974e+01 0 -1 -1
2068 690 3 4.0999999999999998e-01 8.2484587181523885e+00 1.0124081564859420e+01 1.2618728379779657e+01 0 0 1
906 302 3 4.0999999999999998e-01 3.6227467449028614e+00 6.5824162418712744e+00 2.0872000255481996e+01 2 3 0
4260 1420 3 4.0999999999999998e-01 5.2038525378468385e+00 1.0005079181750128e+01 1.3152443534854189e+01 0 0 2
2070 690 3 4.0999999999999998e-01 7.8517729789399873e+00 9.1824943116969528e+00 1.1276993620836562e+01 0 0 1
65 22 4 -8.1999999999999995e-01 3.1432697748074334e+00 1.0408228186004415e+01 1.5472090948355975e+01 2 -1 0
857 286 4 -8.1999999999999995e-01 3.6729522579246097e+00 2.1887137605195330e+00 1.1235339019095052e+01 0 1 0
1433 478 4 -8.1999999999999995e-01 8.4036550247659143e+00 1.6341757220634034e+00 1.6489362933455819e+01 0 0 0
4760 1587 4 -8.1999999999999995e-01 7.5431644822047685e+00 1.7494032309296914e+00 1.0768502636740894e+01 -1 1 0
73 25 3 4.0999999999999998e-01 2.6469371632555596e+00 7.0075783824260540e+00 1.4257785941074602e+01 0 0 -1
1787 596 4 -8.1999999999999995e-01 2.3827387315819748e-01 1.8395655022644053e+00 1.3892338040625679e+01 0 1 1
2660 887 4 -8.1999999999999995e-01 8.4299505657292109e+00 1.9943932954124701e+00 1.9251534519689418e+01 0 1 0
5229 1743 3 4.0999999999999998e-01 3.6940929665455693e+00 1.0190968733925946e+01 2.0955156219307330e+01 1 1 -1
858 286 3 4.0999999999999998e-01 4.1895459991127817e+00 2.8568598621918078e+00 1.0711337582827287e+01 0 1 0
405 135 3 4.0999999999999998e-01 5.7768477336041633e+00 4.6030473466835042e+00 1.0753015806827447e+01 0 0 0
4214 1405 4 -8.1999999999999995e-01 1.2477833351522714e+00 1.7769118055486643e-01 2.6521898291583394e+01 1 1 1
5011 1671 3 4.0999999999999998e-01 8.8616238467921384e+00 2.7327678275070393e+00 2.8969070689141066e+01 1 3 0
429 143 3 4.0999999999999998e-01 3.6180202596316285e-01 4.1024739377435200e+00 2.3409612478544858e+01 0 0 0
5911 1971 3 4.0999999999999998e-01 8.5912030988048276e+00 9.2966892900308231e+00 3.0539729980192163e+01 1 0 -2
5702 1901 4 -8.1999999999999995e-01 4.7958844118671262e+00 3.2776984813757997e+00 2.4412427446950598e+01 0 -1 1
2334 778 3 4.0999999999999998e-01 6.0176851285370727e+00 9.0428329043769118e+00 2.6735184938646615e+01 2 1 0
4213 1405 3 4.0999999999999998e-01 1.7900699190897025e+00 1.0319138196464168e+00 2.6500700649350556e+01 1 1 1
1593 531 3 4.0999999999999998e-01 8.2055691606621994e-01 4.1763221063844984e+00 2.1557496716194144e+01 1 1 0
6808 2270 3 4.0999999999999998e-01 3.2374723345768968e+00 7.2302081056022383e+00 2.7965426648535505e+01 3 -1 0
2333 778 4 -8.1999999999999995e-01 6.3924048507362183e+00 8.3724298851543679e+00 2.6031494786128505e+01 2 1 0
2275 759 3 4.0999999999999998e-01 6.5032191395563403e+00 7.7354241276017355e+00 2.1428782430558758e+01 -2 1 -1
1504 502 3 4.0999999999999998e-01 1.0511846419969597e+01 5.8347001078032013e-01 2.1407915646959939e+01 -1 2 -1
2457 819 3 4.0999999999999998e-01 5.3690847270159461e+00 2.9742454317901763e+00 2.9922206545533982e+01 1 0 -2
5058 1686 3 4.0999999999999998e-01 1.5836096068031766e+00 8.3753784583729693e+00 3.0245111341822920e+01 1 1 -1
4499 1500 4 -8.1999999999999995e-01 5.9074937178983256e-01 5.8505454718784380e+00 3.0154511078936611e+01 -1 1 1
4129 1377 3 4.0999999999999998e-01 2.1752871886077831e+00 4.9892718657085959e+00 2.4798153224664318e+01 0 0 1
5912 1971 4 -8.1999999999999995e-01 9.6387519538929158e+00 9.4580958319824369e+00 3.0781995732801597e+01 1 0 -2
5606 1869 4 -8.1999999999999995e-01 7.0230813759420272e+00 9.1533533640193632e+00 3.0242441549003988e+01 -1 -1 -1
1145 382 4 -8.1999999999999995e-01 4.1939087024884820e+00 1.0357633882119076e+01 2.4679064206909000e+01 0 -1 1
6792 2264 3 4.0999999999999998e-01 7.3388537190525929e+00 6.8909350946214696e+00 2.5920104255807356e+01 0 3 -1
931 311 3 4.0999999999999998e-01 9.0605376939970306e+00 9.5980826587022943e+00 2.3105983342580970e+01 -2 -1 0
7232 2411 4 -8.1999999999999995e-01 1.7243308245011529e-01 7.1808731995424226e+00 2.5156781110231933e+01 1 0 0
5605 1869 3 4.0999999999999998e-01 6.5457231365684958e+00 9.4771023568682953e+00 2.9354930701001493e+01 -1 -1 -1
2262 754 3 4.0999999999999998e-01 7.2610635269972654e+00 3.0213551200923177e+00 2.1902634057233946e+01 2 2 0
1762 588 3 4.0999999999999998e-01 1.0553970811826995e+01 5.5507976279407565e+00 2.4716131931188052e+01 1 -1 0
5607 1869 3 4.0999999999999998e-01 6.5904968036909910e+00 9.5412709364975505e+00 3.1087860265554966e+01 -1 -1 -1
3347 1116 4 -8.1999999999999995e-01 4.0140487004586927e+00 3.7167315138240955e+00 2.8446223426694779e+01 2 1 -1
5012 1671 4 -8.1999999999999995e-01 8.7906486912124375e+00 3.1180804888981952e+00 2.9880915821804010e+01 1 3 0
2696 899 4 -8.1999999999999995e-01 1.9505553294159856e+00 9.4374780599786394e+00 2.5642866928948678e+01 0 1 0
2455 819 3 4.0999999999999998e-01 5.8470595373112362e+00 4.3765668106783808e+00 3.0637915795873571e+01 1 0 -2
5524 1842 3 4.0999999999999998e-01 2.6430387897422696e+00 3.1408317466520552e+00 2.9925381035498589e+01 1 1 -2
6985 2329 3 4.0999999999999998e-01 4.5650863709293086e+00 7.7195778760255314e+00 2.3094334761222338e+01 0 0 0
2276 759 4 -8.1999999999999995e-01 5.4561270382184963e+00 7.7670790518548296e+00 2.1338530352529983e+01 -2 1 -1
4587 1529 3 4.0999999999999998e-01 7.0064354781416140e+00 3.4770931716187747e+00 2.7166563720871050e+01 2 -1 -2
7311 2437 3 4.0999999999999998e-01 4.1300707003294743e+00 5.3496981641752062e-01 2.2434540106520224e+01 0 1 0
5703 1901 3 4.0999999999999998e-01 4.3171872822559685e+00 2.4120087659221929e+00 2.4695668874445438e+01 0 -1 1