LAMMPS data file via write_data, version 5 Jun 2019, timestep = 24000000

7349 atoms
5 atom types
4899 bonds
2 bond types
2451 angles
2 angle types
1 impropers
1 improper types

1.5519297081455363e-01 4.1845807029189409e+01 xlo xhi
1.5469297081455124e-01 4.1845307029189406e+01 ylo yhi
1.5469297081455124e-01 4.1845307029189406e+01 zlo zhi

#Masses
#
#1 12.01
#2 40.08
#3 1.01
#4 16
#5 16
#
#Bond Coeffs # harmonic
#
#1 20.4246 1.3042
#2 22.965 1.012

Atoms # full

6153 2051 3 4.0999999999999998e-01 9.8819530467633303e+00 1.4603438384466363e+00 2.4655879739921605e+00 2 2 -5
2791 931 3 4.0999999999999998e-01 6.2516617373025571e+00 1.7386387530743124e+00 1.0357595420288428e+00 3 3 -3
3369 1123 3 4.0999999999999998e-01 8.2144873765570807e+00 8.5957354989768362e+00 6.5610271987446946e+00 -3 -6 -2
4193 1398 4 -8.1999999999999995e-01 2.0242497071174546e+00 1.0358168422392724e+01 2.4239403032910083e+00 4 6 1
664 222 3 4.0999999999999998e-01 4.4332767325972284e+00 9.8921071217771916e-01 5.9081193516154134e+00 -2 1 3
772 258 3 4.0999999999999998e-01 4.7925712053516687e+00 4.2416622669974267e+00 4.4391089698799426e+00 4 1 -2
3416 1139 4 -8.1999999999999995e-01 5.4258875472906469e+00 6.8025141767108144e+00 7.4219345077570580e+00 1 -1 3
754 252 3 4.0999999999999998e-01 6.3014032021503565e+00 2.5322660052549568e+00 6.7663716121304427e+00 0 4 2
4178 1393 4 -8.1999999999999995e-01 5.4988298313661410e+00 1.0209442830012064e+01 3.5882752716044969e-01 -3 -3 0
2699 900 4 -8.1999999999999995e-01 1.2822308022918381e+00 3.5764278546170782e+00 4.3730178914206164e+00 2 -2 2
4735 1579 3 4.0999999999999998e-01 3.9708418797288099e+00 6.1160729923995349e+00 8.5504482814552123e+00 1 4 -1
7082 2361 4 -8.1999999999999995e-01 3.9468588941350378e+00 6.4163591810005940e+00 1.7984713375509007e+00 -1 -2 1
5830 1944 3 4.0999999999999998e-01 9.6171511632220934e+00 7.1125702591442588e+00 7.3547046740723658e+00 1 -1 -2
1334 445 4 -8.1999999999999995e-01 8.4965839425369758e+00 7.8209331602532450e-01 1.0027191222476027e+01 -2 4 1
6217 2073 3 4.0999999999999998e-01 8.8539520826516860e+00 8.4577117070686185e+00 3.1499770050425600e+00 -2 2 3
3417 1139 3 4.0999999999999998e-01 5.1231279534064393e+00 6.2941494420766615e+00 6.6426714726363523e+00 1 -1 3
265 89 3 4.0999999999999998e-01 2.4258492990885587e+00 1.1341761055850959e+00 6.3470301944814729e+00 1 2 -1
7334 2445 4 -8.1999999999999995e-01 7.9632262810761532e+00 4.8622285499371092e+00 5.8864792114069253e+00 2 -2 4
6704 2235 4 -8.1999999999999995e-01 5.8030915278502873e+00 8.4539755095817952e+00 2.6935911905532928e+00 -2 -4 -3
297 99 3 4.0999999999999998e-01 1.8440330212772100e+00 9.0023027980537158e+00 1.6613686299597339e+00 0 1 4
5180 1727 4 -8.1999999999999995e-01 7.7170708994351953e+00 1.1591269694904547e+00 6.8997339860039419e+00 6 3 -1
2905 969 3 4.0999999999999998e-01 8.3509491644323184e+00 4.1580922319786184e+00 2.8149824602278266e+00 3 -1 1
560 187 4 -8.1999999999999995e-01 9.3657175130214636e+00 1.0246112515967290e+01 3.4572053908787521e+00 2 3 8
266 89 4 -8.1999999999999995e-01 3.1603325868631238e+00 9.3933391817011358e-01 7.0175910043530685e+00 1 2 -1
2907 969 3 4.0999999999999998e-01 6.7187427385509553e+00 4.2601496167989277e+00 3.3787453032163399e+00 3 -1 1
2375 792 4 -8.1999999999999995e-01 1.7802501491497456e+00 5.7806756843266562e+00 6.2267578458900026e+00 -5 -3 4
1335 445 3 4.0999999999999998e-01 8.6046488408036019e+00 1.8190041939279862e+00 1.0122297952224660e+01 -2 4 1
6247 2083 3 4.0999999999999998e-01 6.0403055802614416e+00 4.0877142505405679e+00 8.8960917016716365e+00 1 -1 -5
665 222 4 -8.1999999999999995e-01 5.1489392641562191e+00 9.1323497026051126e-01 5.2120836855925790e+00 -2 1 3
7333 2445 3 4.0999999999999998e-01 7.0272147238578979e+00 5.1284518487409105e+00 5.5980248117622464e+00 2 -2 4
6151 2051 3 4.0999999999999998e-01 8.6117296373480148e+00 7.7596130248809592e-01 1.7231618359194012e+00 2 2 -5
4194 1398 3 4.0999999999999998e-01 1.9062897910364229e+00 1.0281001774395193e+01 3.4340663702153602e+00 4 6 1
5038 1680 3 4.0999999999999998e-01 3.8447152882801152e+00 4.4279716863236764e+00 2.5833270905890591e+00 -1 -3 -2
666 222 3 4.0999999999999998e-01 5.9989303244408383e+00 5.8249444730694144e-01 5.6862243786732423e+00 -2 1 3
4153 1385 3 4.0999999999999998e-01 2.3093470144380290e-01 8.5669985191767957e+00 8.7219991993724673e+00 2 5 1
5039 1680 4 -8.1999999999999995e-01 3.8119719320474643e+00 3.6501704809013602e+00 3.2589112725823530e+00 -1 -3 -2
6705 2235 3 4.0999999999999998e-01 5.2301311762377303e+00 8.3850912136155475e+00 3.5462839096304624e+00 -2 -4 -3
295 99 3 4.0999999999999998e-01 9.7604121793719301e-01 7.9791069478740164e+00 6.3624678539503632e-01 0 1 4
3415 1139 3 4.0999999999999998e-01 5.9619552804702982e+00 7.6282511183084507e+00 7.0839293027627841e+00 1 -1 3
3068 1023 4 -8.1999999999999995e-01 8.6717955559199922e+00 3.3485078534719777e+00 1.0416642755678239e+01 0 -3 -1
5464 1822 3 4.0999999999999998e-01 5.8589419709462760e+00 1.0227230423558858e+01 3.4676093984875265e+00 2 -1 1
2698 900 3 4.0999999999999998e-01 1.4576564369394942e+00 4.4174628949429451e+00 4.9277006243619050e+00 2 -2 2
3683 1228 4 -8.1999999999999995e-01 7.8363517474997577e+00 5.9415527439952154e+00 3.9873399284014022e-01 5 5 1
7083 2361 3 4.0999999999999998e-01 4.7208862957463165e+00 7.0647438077624303e+00 1.9925227857949566e+00 -1 -2 1
2793 931 3 4.0999999999999998e-01 5.0612620778201380e+00 8.9650262576363215e-01 1.9340486083147412e+00 3 3 -3
774 258 3 4.0999999999999998e-01 5.2068131523810592e+00 4.2195516525295718e+00 6.0268758503554416e+00 4 1 -2
7081 2361 3 4.0999999999999998e-01 3.0843265767942314e+00 6.8801226670177051e+00 1.4569421749910469e+00 -1 -2 1
4737 1579 3 4.0999999999999998e-01 3.0333156868370730e+00 4.8358764180023739e+00 9.0546624416375998e+00 1 4 -1
3238 1080 3 4.0999999999999998e-01 8.1030579642191771e+00 2.0577580193779923e+00 5.6209392864356413e+00 -1 -1 -1
887 296 4 -8.1999999999999995e-01 1.7161159336852783e+00 7.3722023367811911e+00 4.0222393875676943e+00 2 0 4
3658 1220 3 4.0999999999999998e-01 3.2673667074983817e+00 2.1479271884889301e-01 9.8635920622884381e+00 1 3 5
773 258 4 -8.1999999999999995e-01 5.3415468975706535e+00 4.7593562468886308e+00 5.1639059301608139e+00 4 1 -2
4280 1427 4 -8.1999999999999995e-01 4.2832668534258316e+00 7.1603882866831174e+00 4.6056776665019132e+00 1 -2 4
3368 1123 4 -8.1999999999999995e-01 7.3430560332027905e+00 8.4876690837754492e+00 6.0670150221949601e+00 -3 -6 -2
6249 2083 3 4.0999999999999998e-01 6.1047588835057809e+00 5.7937611610515773e+00 8.5688320079977949e+00 1 -1 -5
5040 1680 3 4.0999999999999998e-01 4.0851812930954416e+00 2.8128044595850765e+00 2.6780994540484504e+00 -1 -3 -2
6768 2256 3 4.0999999999999998e-01 5.0986539858937041e-01 9.9648748187672336e+00 5.4835739355607469e+00 -3 3 -1
1951 651 3 4.0999999999999998e-01 6.1591114802714764e-01 2.0431437398397341e+00 5.2046158704674284e+00 -3 1 4
4279 1427 3 4.0999999999999998e-01 3.2778572856846990e+00 7.1014680557733811e+00 4.3405678045250298e+00 1 -2 4
6218 2073 4 -8.1999999999999995e-01 8.3226402061331690e+00 7.6393325521603694e+00 3.3397810430282746e+00 -2 2 3
5528 1843 4 -8.1999999999999995e-01 7.8969923794218815e+00 1.2563670993251275e+00 1.8843316522162332e-01 -1 3 0
3421 1141 3 4.0999999999999998e-01 9.9766035180855148e+00 9.3150314806279617e+00 7.5527773353451106e+00 -2 -5 1
7108 2370 3 4.0999999999999998e-01 9.7285248258474564e+00 5.3873713174726197e+00 5.0094401845802725e+00 3 2 3
6703 2235 3 4.0999999999999998e-01 6.7546639283213299e+00 8.0792440847127551e+00 2.8938224380763442e+00 -2 -4 -3
6351 2117 3 4.0999999999999998e-01 1.8388876375671823e-01 3.1397293393493095e+00 9.9309144463346168e+00 -1 0 6
7230 2410 3 4.0999999999999998e-01 2.0592487629402023e+00 8.2707410788495004e+00 1.0522229862479630e+01 0 5 -1
6349 2117 3 4.0999999999999998e-01 6.4520819643359673e-01 1.6020148882817653e+00 9.9570889751856484e+00 -1 0 6
4177 1393 3 4.0999999999999998e-01 5.5911087119678200e+00 9.5698074319234667e+00 1.1058455458118936e+00 -3 -3 0
6248 2083 4 -8.1999999999999995e-01 6.2454366284834739e+00 5.0637461957163845e+00 9.2992822590141166e+00 1 -1 -5
1952 651 4 -8.1999999999999995e-01 5.5779360633341046e-01 1.0555453066770675e+00 5.4693353086418730e+00 -3 1 4
4281 1427 3 4.0999999999999998e-01 4.8653615245664579e+00 6.3490718184806001e+00 4.3950122024594860e+00 1 -2 4
2374 792 3 4.0999999999999998e-01 1.9480313860560805e+00 6.5868944224083918e+00 5.6592809092951271e+00 -5 -3 4
33 11 3 4.0999999999999998e-01 3.7837642113195407e+00 8.3287439732766266e+00 6.0505760760808727e+00 -3 0 3
755 252 4 -8.1999999999999995e-01 5.5568558226842546e+00 3.0460736074940997e+00 7.3035436274786179e+00 0 4 2
4541 1514 4 -8.1999999999999995e-01 9.8074316333625724e+00 8.0000751389033820e+00 6.1541199218790466e-01 -4 0 -2
3240 1080 3 4.0999999999999998e-01 8.5375786448914734e+00 1.6329463437247034e+00 4.0631170194812292e+00 -1 -1 -1
4166 1389 4 -8.1999999999999995e-01 2.9267875091594426e+00 9.7561038848503028e+00 1.0329986861274257e+01 -4 3 5
7109 2370 4 -8.1999999999999995e-01 1.0378644171853743e+01 6.1275844971016449e+00 4.7147582827621077e+00 3 2 3
7335 2445 3 4.0999999999999998e-01 8.0787368073131756e+00 3.9204552793545715e+00 5.5200932648401082e+00 2 -2 4
6152 2051 4 -8.1999999999999995e-01 9.1583618791786474e+00 8.1233844881509620e-01 2.5706966229650106e+00 2 2 -5
6219 2073 3 4.0999999999999998e-01 8.9204012737483378e+00 6.8746978688348310e+00 3.5744788120889983e+00 -2 2 3
3684 1228 3 4.0999999999999998e-01 7.6707886345706866e+00 5.4024659408111129e+00 1.2940340178362388e+00 5 5 1
2700 900 3 4.0999999999999998e-01 2.2093062745069245e+00 3.3029124032594583e+00 3.9804801275990651e+00 2 -2 2
7228 2410 3 4.0999999999999998e-01 2.2576309584602305e+00 6.7918883862863888e+00 9.8829708961780192e+00 0 5 -1
4736 1579 4 -8.1999999999999995e-01 3.0607919851042831e+00 5.8832968423282557e+00 8.8607838673149431e+00 1 4 -1
4165 1389 3 4.0999999999999998e-01 3.7059501521172615e+00 1.0202043451913299e+01 9.8741967479124799e+00 -4 3 5
296 99 4 -8.1999999999999995e-01 1.8273054984830066e+00 8.0700437018476396e+00 1.2106069261899073e+00 0 1 4
6767 2256 4 -8.1999999999999995e-01 1.4742110725952260e+00 1.0041013658744621e+01 5.1308149839983130e+00 -3 3 -1
886 296 3 4.0999999999999998e-01 1.6129935742042967e+00 7.3345777209773253e+00 2.9957741392053356e+00 2 0 4
5832 1944 3 4.0999999999999998e-01 8.7768961939231289e+00 5.7649999665208336e+00 7.1493811027196070e+00 1 -1 -2
3239 1080 4 -8.1999999999999995e-01 8.0919318817475734e+00 2.4274927182055559e+00 4.6097426033980549e+00 -1 -1 -1
2906 969 4 -8.1999999999999995e-01 7.4263298250892680e+00 4.5921186675573296e+00 2.7017485491605879e+00 3 -1 1
3367 1123 3 4.0999999999999998e-01 7.6360387181478302e+00 7.9935519981584466e+00 5.1881220904633478e+00 -3 -6 -2
756 252 3 4.0999999999999998e-01 4.6669058029638402e+00 2.4624232023958559e+00 7.1596292454777490e+00 0 4 2
2376 792 3 4.0999999999999998e-01 2.2958945554019659e+00 5.9285473733714893e+00 7.0708731550817943e+00 -5 -3 4
5179 1727 3 4.0999999999999998e-01 8.6141285164672130e+00 1.2392113571764285e+00 7.3856715672896440e+00 6 3 -1
1427 476 4 -8.1999999999999995e-01 1.0307715840906951e+01 3.6353798245069902e+00 2.9623057956099421e+00 5 1 -1
31 11 3 4.0999999999999998e-01 3.2366773372640258e+00 8.1446514393663474e+00 7.5521150102109766e+00 -3 0 3
3422 1141 4 -8.1999999999999995e-01 1.0151735373498338e+01 8.5698519903060841e+00 6.8056196073884685e+00 -2 -5 1
5831 1944 4 -8.1999999999999995e-01 9.4680163769847230e+00 6.1935462809921482e+00 7.7786009345031237e+00 1 -1 -2
4540 1514 3 4.0999999999999998e-01 1.0413958320253933e+01 7.5500302462638018e+00 1.3170831182692291e+00 -4 0 -2
6766 2256 3 4.0999999999999998e-01 2.1849682350700044e+00 9.6518712680697831e+00 5.7626639105634219e+00 -3 3 -1
888 296 3 4.0999999999999998e-01 1.6821059425698655e+00 8.4004651659396892e+00 4.3010625629796664e+00 2 0 4
32 11 4 -8.1999999999999995e-01 3.1078583878285486e+00 8.7068287990370834e+00 6.7364197243633015e+00 -3 0 3
4775 1592 4 -8.1999999999999995e-01 3.0117991863591289e+00 3.2695991776396309e+00 1.0229032117398086e+01 -1 -4 3
3067 1023 3 4.0999999999999998e-01 9.4741649500954672e+00 3.9617483509352169e+00 1.0394606767566804e+01 0 -3 -1
5391 1797 3 4.0999999999999998e-01 9.5800190191729708e+00 9.6940070026839660e+00 1.0229997046874612e+01 5 -2 2
1333 445 3 4.0999999999999998e-01 9.2787700831122475e+00 4.9464852789266212e-01 9.3877223190624068e+00 -2 4 1
2792 931 4 -8.1999999999999995e-01 5.2877689679902238e+00 1.6761589832168839e+00 1.3020791712207065e+00 3 3 -3
224 75 4 -8.1999999999999995e-01 1.0363147318056276e+01 6.9443920970919548e-01 7.9698404894594184e+00 4 -4 0
7229 2410 4 -8.1999999999999995e-01 1.6237314516483712e+00 7.3325349642536644e+00 1.0491441991438091e+01 0 5 -1
3069 1023 3 4.0999999999999998e-01 7.8419685492512468e+00 3.8911172641461569e+00 1.0103538736665032e+01 0 -3 -1
3685 1229 3 4.0999999999999998e-01 6.9221558997888541e+00 5.1458382628940391e-01 9.8089775261319971e+00 0 -1 4
4542 1514 3 4.0999999999999998e-01 9.0042111885177398e+00 7.3973038256009342e+00 5.2662054424013971e-01 -4 0 -2
607 203 3 4.0999999999999998e-01 1.0076535445797697e+01 5.7907999320187882e+00 9.3444074271074165e+00 2 2 4
559 187 3 4.0999999999999998e-01 1.0267201892825581e+01 1.0109007889549597e+01 3.0327635454392894e+00 2 3 8
4774 1592 3 4.0999999999999998e-01 3.3386480950965018e+00 2.2780116088068070e+00 1.0286094341285683e+01 -1 -4 3
5390 1797 4 -8.1999999999999995e-01 9.5678040892008340e+00 1.0419325784517511e+01 9.4942303287566023e+00 5 -2 2
267 89 3 4.0999999999999998e-01 2.9088040094572558e+00 2.9558230900060123e-01 7.7783111763614459e+00 1 2 -1
2668 890 3 4.0999999999999998e-01 1.7952765709579666e-01 5.0692073728411193e+00 6.8578757885935673e+00 1 -2 0
5181 1727 3 4.0999999999999998e-01 7.4800469772947968e+00 1.9193472322314875e-01 7.0366991486256021e+00 6 3 -1
4956 1652 3 4.0999999999999998e-01 1.9116432605027539e-01 1.6432111461891452e-01 4.1004923845828705e+00 -3 0 3
2716 906 3 4.0999999999999998e-01 7.3491858826206533e+00 1.5441213080347094e+00 1.4439302968451484e+01 7 2 -1
4407 1469 3 4.0999999999999998e-01 2.2753702826342166e+00 8.1141463072319198e+00 1.9749244632510422e+01 3 0 3
6554 2185 4 -8.1999999999999995e-01 1.1010964603628206e+00 7.6951486517353473e-01 1.5181726229085655e+01 -3 -2 1
6399 2133 3 4.0999999999999998e-01 2.0785718241623212e+00 1.5471183340313539e+00 2.0089029592802948e+01 -2 -4 -1
4743 1581 3 4.0999999999999998e-01 7.9614279125784728e+00 1.5994491688380874e+00 1.7995450384586245e+01 0 -2 0
1144 382 3 4.0999999999999998e-01 9.3463079921982288e+00 8.8760431355716491e+00 1.9896293367354534e+01 2 1 0
4776 1592 3 4.0999999999999998e-01 3.2960726210272009e+00 3.7184109982661178e+00 1.1123256852664808e+01 -1 -4 3
5395 1799 3 4.0999999999999998e-01 4.8123162801922287e-01 7.4961452737937888e+00 1.1953927582568232e+01 -9 3 5
2718 906 3 4.0999999999999998e-01 8.2560924755792922e+00 1.7345898375629252e+00 1.3015777559300920e+01 7 2 -1
3648 1216 3 4.0999999999999998e-01 7.0402353208763069e+00 7.5577639178136744e+00 1.8360662393166354e+01 -3 3 -1
3113 1038 4 -8.1999999999999995e-01 7.2458050632455571e+00 4.0702399847127460e+00 1.9266544976345632e+01 0 -1 6
2674 892 3 4.0999999999999998e-01 4.8060600857415618e+00 6.6173816280667630e-01 1.0825763808141694e+01 -2 1 1
5970 1990 3 4.0999999999999998e-01 2.9408279927646532e+00 7.0808537906738227e+00 1.5035935637355818e+01 3 -1 -6
4634 1545 4 -8.1999999999999995e-01 5.9625073422212953e+00 8.6204062983009617e+00 2.0220139688410129e+01 1 0 1
6453 2151 3 4.0999999999999998e-01 8.4624973293138783e-01 3.9985828895636457e+00 2.0105872579798266e+01 5 2 -3
3126 1042 3 4.0999999999999998e-01 8.6214007054705011e+00 5.5244569372909460e+00 1.2812697244831149e+01 -1 -1 -1
6042 2014 3 4.0999999999999998e-01 5.0311426222124247e+00 1.0564150744836405e+00 1.4841954102630684e+01 1 -1 3
4369 1457 3 4.0999999999999998e-01 4.8042193779624478e+00 4.0168605511755331e+00 1.7748289126294456e+01 -2 4 -2
2688 896 3 4.0999999999999998e-01 7.4411910495936411e+00 5.7962297882055562e+00 1.6189474209792305e+01 -2 1 -1
3753 1251 3 4.0999999999999998e-01 4.0209603991977279e+00 9.9045220178672206e+00 1.3129472966975813e+01 -1 0 1
1118 373 4 -8.1999999999999995e-01 7.6008725361826084e+00 9.0184766390927287e+00 1.2688949001689211e+01 0 4 5
770 257 4 -8.1999999999999995e-01 5.6320898713027763e+00 6.1828269404117533e+00 1.1700185179006631e+01 5 -1 1
6317 2106 4 -8.1999999999999995e-01 1.0489824228975928e+01 7.3451634960026988e+00 1.7797886903487306e+01 -1 -4 -7
5614 1872 3 4.0999999999999998e-01 9.8112718136056127e+00 1.1274448083039401e+00 1.5084178277437436e+01 -2 1 3
6398 2133 4 -8.1999999999999995e-01 1.2794927570440484e+00 9.1805684364112916e-01 2.0131853983293102e+01 -2 -4 -1
3647 1216 4 -8.1999999999999995e-01 7.0009122411131761e+00 6.6257263321635893e+00 1.7846682930786255e+01 -3 3 -1
5014 1672 3 4.0999999999999998e-01 3.8496673815686249e+00 7.6035464484135371e+00 1.7504480713358255e+01 -1 -1 -2
3065 1022 4 -8.1999999999999995e-01 1.0255298334943094e+01 5.2182412497672868e+00 1.5284572325171906e+01 4 -1 2
6555 2185 3 4.0999999999999998e-01 9.3335644638264426e-01 1.7766073674599423e+00 1.5097327325974346e+01 -3 -2 1
6328 2110 3 4.0999999999999998e-01 1.0362675107660373e+00 4.1091581181339389e+00 1.6198157807662554e+01 -3 1 -1
769 257 3 4.0999999999999998e-01 6.4502931199048463e+00 5.9742711878389141e+00 1.2280285473692091e+01 5 -1 1
1669 557 3 4.0999999999999998e-01 1.8987461079457724e+00 5.7005481652372563e+00 1.9712627179569598e+01 2 -2 -5
1831 611 3 4.0999999999999998e-01 5.1580671387913124e-01 4.1765036707331369e+00 1.1782222083144971e+01 0 -2 4
1732 578 3 4.0999999999999998e-01 2.7901334519574590e+00 5.8187744998736397e+00 1.2891095014731373e+01 -2 1 -1
3812 1271 4 -8.1999999999999995e-01 9.8187355807323033e+00 2.0210780375611237e+00 1.7912641080932406e+01 1 -2 1
1832 611 4 -8.1999999999999995e-01 8.1221046910096328e-01 3.4287137344287215e+00 1.2501708372183010e+01 0 -2 4
4071 1357 3 4.0999999999999998e-01 8.4698077259952953e+00 1.0004992333757970e+01 1.8247497550807068e+01 2 2 1
7029 2343 3 4.0999999999999998e-01 3.1200538326723848e+00 9.8407047897330546e+00 1.8729430858431432e+01 -6 3 -2
5397 1799 3 4.0999999999999998e-01 9.6401023306409173e-01 7.3725114474746922e+00 1.3436088097845891e+01 -9 3 5
3066 1022 3 4.0999999999999998e-01 9.3299650067237376e+00 5.2799690634545549e+00 1.5540706682270049e+01 4 -1 2
3811 1271 3 4.0999999999999998e-01 1.0130356513192025e+01 1.4425803428532651e+00 1.7074569402127686e+01 1 -2 1
5928 1976 3 4.0999999999999998e-01 3.8778675459971845e+00 8.8949344098567007e+00 1.1278921653620161e+01 1 2 6
4840 1614 3 4.0999999999999998e-01 5.7398257798729988e+00 1.1350182058516172e+00 1.9155290647007174e+01 3 3 -2
7027 2343 3 4.0999999999999998e-01 4.6081962970517845e+00 9.1438650789184894e+00 1.9288354658482216e+01 -6 3 -2
6837 2279 3 4.0999999999999998e-01 6.8447115186079452e+00 9.0481758635044685e+00 1.5641577206082747e+01 0 0 1
5926 1976 3 4.0999999999999998e-01 4.8119562915664700e+00 7.6393276099186291e+00 1.2079849000606577e+01 1 2 6
2687 896 4 -8.1999999999999995e-01 7.4731678032013136e+00 4.8565865562329202e+00 1.5802560472746555e+01 -2 1 -1
771 257 3 4.0999999999999998e-01 5.9350472997731485e+00 5.8986149144726312e+00 1.0760260656266327e+01 5 -1 1
1671 557 3 4.0999999999999998e-01 2.6011263793027664e+00 4.2270079226410120e+00 2.0101278166394771e+01 2 -2 -5
6699 2233 3 4.0999999999999998e-01 4.0865366553081746e+00 2.4673279935316992e+00 2.0836452995957220e+01 4 -5 -3
3646 1216 3 4.0999999999999998e-01 6.8528239994748201e+00 5.8308310843271212e+00 1.8434481016560177e+01 -3 3 -1
1833 611 3 4.0999999999999998e-01 1.7945487768139874e+00 3.5999693816387812e+00 1.2597207690281294e+01 0 -2 4
4405 1469 3 4.0999999999999998e-01 1.1593233140970103e+00 7.6933170599033005e+00 2.0767971396796035e+01 3 0 3
6903 2301 3 4.0999999999999998e-01 3.3675924599428497e+00 3.9583843593305694e+00 1.4159662434269523e+01 -4 1 -5
1311 437 3 4.0999999999999998e-01 8.9491285610992737e+00 8.7904281008761167e+00 1.1960028056886184e+01 1 4 -1
3125 1042 4 -8.1999999999999995e-01 7.7165277107421950e+00 5.7509788591711555e+00 1.3233676140875923e+01 -1 -1 -1
3112 1038 3 4.0999999999999998e-01 7.2736812422714623e+00 3.3544546901256638e+00 1.8497151729025394e+01 0 -1 6
2686 896 3 4.0999999999999998e-01 6.8052068901489919e+00 4.2831694391708215e+00 1.6347901540592826e+01 -2 1 -1
1119 373 3 4.0999999999999998e-01 7.9336840624977505e+00 8.8450445629014212e+00 1.3660891106650816e+01 0 4 5
6836 2279 4 -8.1999999999999995e-01 7.6482645933528524e+00 9.4876269768905459e+00 1.5238863979866947e+01 0 0 1
5015 1672 4 -8.1999999999999995e-01 3.9806000188150681e+00 7.2688831613320106e+00 1.6468125865073379e+01 -1 -1 -2
4741 1581 3 4.0999999999999998e-01 6.5495813718184968e+00 1.1089645492919047e+00 1.7266842689612865e+01 0 -2 0
4842 1614 3 4.0999999999999998e-01 5.5485804991498764e+00 4.1346534520687372e-01 2.0602760280042514e+01 3 3 -2
6329 2110 4 -8.1999999999999995e-01 6.7541573404494759e-01 3.5019183043605508e+00 1.5480692089965466e+01 -3 1 -1
6316 2106 3 4.0999999999999998e-01 9.5488565189495969e+00 7.7542580581740079e+00 1.7633192021696726e+01 -1 -4 -7
3124 1042 3 4.0999999999999998e-01 7.5814881337100024e+00 5.3599857816552943e+00 1.4165902032257442e+01 -1 -1 -1
2676 892 3 4.0999999999999998e-01 3.9090667048988772e+00 6.4728824332681156e-01 1.2341140721423130e+01 -2 1 1
4069 1357 3 4.0999999999999998e-01 7.4213127282870071e+00 9.2134039175048770e+00 1.9296634014320038e+01 2 2 1
1145 382 4 -8.1999999999999995e-01 9.9093538695983518e+00 9.0347038879294139e+00 2.0761538232473544e+01 2 1 0
5969 1990 4 -8.1999999999999995e-01 2.5311591709566090e+00 7.2382497234022676e+00 1.4106092242914249e+01 3 -1 -6
4635 1545 3 4.0999999999999998e-01 6.1022300571012886e+00 7.6122646580689430e+00 2.0278319588611698e+01 1 0 1
4370 1457 4 -8.1999999999999995e-01 5.1760832625776700e+00 3.9228630470281054e+00 1.6818550327297704e+01 -2 4 -2
5016 1672 3 4.0999999999999998e-01 4.7291473167618259e+00 6.5867304825924515e+00 1.6381425321324357e+01 -1 -1 -2
4406 1469 4 -8.1999999999999995e-01 1.6553913726789733e+00 7.3393963533103630e+00 1.9929995805210176e+01 3 0 3
1734 578 3 4.0999999999999998e-01 4.0758497816542256e+00 5.2584294300307546e+00 1.2097939732467033e+01 -2 1 -1
4147 1383 3 4.0999999999999998e-01 7.3565171009920627e-01 4.3923350230044989e-01 1.8734041356153849e+01 3 3 -3
4841 1614 4 -8.1999999999999995e-01 5.0068604942776096e+00 8.7898104989035164e-01 1.9861266787768031e+01 3 3 -2
1733 578 4 -8.1999999999999995e-01 3.1860320325412541e+00 4.9381615186577061e+00 1.2505422810856095e+01 -2 1 -1
1670 557 4 -8.1999999999999995e-01 2.0185779005580540e+00 4.7393950387780741e+00 1.9383655526604063e+01 2 -2 -5
2717 906 4 -8.1999999999999995e-01 8.0669695202937408e+00 1.0899554575897641e+00 1.3869995240680037e+01 7 2 -1
6901 2301 3 4.0999999999999998e-01 2.3185168908625799e+00 3.3502230113079108e+00 1.5177101085054758e+01 -4 1 -5
1558 520 3 4.0999999999999998e-01 2.5341209890798333e+00 4.0667263847858620e-01 1.4470320221212706e+01 -1 -2 -3
6553 2185 3 4.0999999999999998e-01 8.6996316271047747e-01 5.5849312513517624e-01 1.6166742377053676e+01 -3 -2 1
7028 2343 4 -8.1999999999999995e-01 3.6123545659120007e+00 8.9373883017830433e+00 1.8924021168574161e+01 -6 3 -2
5968 1990 3 4.0999999999999998e-01 3.0238264962847889e+00 7.8830864568718999e+00 1.3512934359909069e+01 3 -1 -6
6235 2079 3 4.0999999999999998e-01 6.6350967256607181e+00 5.2223105380343311e+00 2.0448568654184236e+01 1 -2 -3
3114 1038 3 4.0999999999999998e-01 7.8216518778864605e+00 3.5939768120213023e+00 2.0030878038719539e+01 0 -1 6
5927 1976 4 -8.1999999999999995e-01 4.2184081146349683e+00 8.4807165721558384e+00 1.2235835327703636e+01 1 2 6
6902 2301 4 -8.1999999999999995e-01 3.3169210783659060e+00 3.4865531741471916e+00 1.5022353586197186e+01 -4 1 -5
3864 1288 3 4.0999999999999998e-01 4.0920618137573248e+00 1.0440559764656756e+01 1.5943468217090659e+01 -1 1 2
6040 2014 3 4.0999999999999998e-01 5.4945889108346684e+00 2.2162634870680344e+00 1.5995134179276233e+01 1 -1 3
6041 2014 4 -8.1999999999999995e-01 5.7588451004731303e+00 1.3391711224516434e+00 1.5531808943297122e+01 1 -1 3
4371 1457 3 4.0999999999999998e-01 4.3765264721921469e+00 3.9453331327477352e+00 1.6193099960405728e+01 -2 4 -2
4070 1357 4 -8.1999999999999995e-01 8.2268959104226926e+00 9.0933483962662525e+00 1.8716103678623998e+01 2 2 1
6835 2279 3 4.0999999999999998e-01 8.1749305730262307e+00 1.0093892831059909e+01 1.5809126003274287e+01 0 0 1
3862 1288 3 4.0999999999999998e-01 4.5248409248971431e+00 8.8271898684164327e+00 1.6049650330834925e+01 -1 1 2
4742 1581 4 -8.1999999999999995e-01 6.9462285247813904e+00 1.4426529980185174e+00 1.8132045494756078e+01 0 -2 0
3863 1288 4 -8.1999999999999995e-01 4.8273102577937976e+00 9.8157373034479427e+00 1.6109234421715023e+01 -1 1 2
1117 373 3 4.0999999999999998e-01 6.7583900526058196e+00 8.4805702620897474e+00 1.2453431041367320e+01 0 4 5
2675 892 4 -8.1999999999999995e-01 4.0310666908582755e+00 1.0268436466837478e+00 1.1354607244660365e+01 -2 1 1
1310 437 4 -8.1999999999999995e-01 9.8683267058085669e+00 8.6733652960916530e+00 1.1430472576220248e+01 1 4 -1
6397 2133 3 4.0999999999999998e-01 6.7646413900554325e-01 1.2627784190279423e+00 2.0904946763981840e+01 -2 -4 -1
6250 2084 3 4.0999999999999998e-01 5.3830884972712167e-01 5.9579599650924138e+00 1.0652316189795659e+01 1 -1 -1
5396 1799 4 -8.1999999999999995e-01 1.5756129538596042e-01 7.4964243935397823e+00 1.2919320234683010e+01 -9 3 5
6760 2254 3 4.0999999999999998e-01 1.9434891887683501e+00 4.8430102834141948e+00 2.3767850135163350e+01 -5 -3 -3
6089 2030 4 -8.1999999999999995e-01 6.3077401635016992e+00 4.4976226100801071e+00 2.5155553462485475e+01 -3 2 1
6963 2321 3 4.0999999999999998e-01 1.0562502789012857e+01 2.5115996654360373e+00 3.0594869761970159e+01 2 -2 -6
6090 2030 3 4.0999999999999998e-01 6.2462944485481584e+00 4.8066026141301368e+00 2.6150991483698142e+01 -3 2 1
2063 688 4 -8.1999999999999995e-01 2.5303253481687578e+00 7.0568017376759311e+00 2.9842570116951553e+01 2 2 -3
6920 2307 4 -8.1999999999999995e-01 6.5383832172076763e+00 1.9823702351341035e-01 2.6297179452755131e+01 5 5 1
3861 1287 3 4.0999999999999998e-01 5.2206057046375705e+00 4.1958314185854944e+00 2.8291372897989909e+01 2 -4 -1
7007 2336 4 -8.1999999999999995e-01 6.6230467245374225e+00 9.5556806736647797e+00 2.9551475063324624e+01 2 -5 2
5249 1750 4 -8.1999999999999995e-01 9.1151827894024198e+00 7.6480984537554542e-01 2.4267579926450448e+01 1 4 1
5759 1920 4 -8.1999999999999995e-01 4.6720912635558038e+00 2.2801854445933181e+00 2.8218277183245043e+01 -1 -1 6
3524 1175 4 -8.1999999999999995e-01 4.0219900094980625e+00 6.9326695399331895e+00 2.7629227493532582e+01 -2 2 1
2964 988 3 4.0999999999999998e-01 3.9898950329175671e+00 6.4530930212442712e+00 2.3191204018448794e+01 0 0 2
6932 2311 4 -8.1999999999999995e-01 5.4094196544700175e+00 9.1945141326377140e+00 2.6772271203343880e+01 3 5 3
3130 1044 3 4.0999999999999998e-01 9.3477183249183327e+00 3.5986385879945884e+00 2.4321610409038570e+01 6 2 3
6761 2254 4 -8.1999999999999995e-01 1.6531030822182231e+00 4.0933283178574271e+00 2.4368356318326342e+01 -5 -3 -3
5250 1750 3 4.0999999999999998e-01 8.4097042768465435e+00 7.5784714525957619e-01 2.4980322283011560e+01 1 4 1
5758 1920 3 4.0999999999999998e-01 4.6255460594598876e+00 1.2676445798628595e+00 2.8071619489169628e+01 -1 -1 6
4364 1455 4 -8.1999999999999995e-01 1.5760106955469066e+00 6.2676915641122999e-01 3.0891402762879789e+01 2 -5 -2
1007 336 4 -8.1999999999999995e-01 2.5040051260191898e-01 8.3721563272287263e+00 2.2551887537756116e+01 -1 -3 2
6088 2030 3 4.0999999999999998e-01 5.6963622538073446e+00 5.0602713581793664e+00 2.4505860002542647e+01 -3 2 1
3860 1287 4 -8.1999999999999995e-01 5.8107103120276644e+00 5.0249423656286609e+00 2.8139951452954790e+01 2 -4 -1
2602 868 3 4.0999999999999998e-01 5.6514767785675524e-01 1.0228348498121809e+01 2.5780507180589147e+01 6 -3 -1
4363 1455 3 4.0999999999999998e-01 1.0079292986431738e+00 4.3302579082879561e-01 3.0040187066288556e+01 2 -5 -2
4056 1352 3 4.0999999999999998e-01 3.2139797857049617e+00 1.0210116999697449e+01 3.1142726602056030e+01 2 -6 -1
3151 1051 3 4.0999999999999998e-01 9.0598337645589826e+00 5.4801687255946039e+00 2.2630519669286731e+01 -3 0 1
1011 337 3 4.0999999999999998e-01 8.0145901698123705e+00 7.4094915356309903e+00 2.5214030633561634e+01 0 1 3
3802 1268 3 4.0999999999999998e-01 7.1083706283044270e+00 9.5998716486280755e-01 3.0246844749727053e+01 2 0 -2
4216 1406 3 4.0999999999999998e-01 9.4415036665859713e+00 3.6172919188077581e+00 2.7585936102972038e+01 0 -1 -2
6400 2134 3 4.0999999999999998e-01 3.9393823557859420e-01 5.1048048280507965e+00 3.0536016230909695e+01 -3 3 -3
3152 1051 4 -8.1999999999999995e-01 9.1817893215791706e+00 6.0534623305919819e+00 2.1772648154602194e+01 -3 0 1
3523 1175 3 4.0999999999999998e-01 3.3493505408285760e+00 6.9148303244858456e+00 2.6852835302607911e+01 -2 2 1
4054 1352 3 4.0999999999999998e-01 2.0065818886199573e+00 9.5350977568941744e+00 3.0310175417761563e+01 2 -6 -1
2960 987 4 -8.1999999999999995e-01 2.1317141590080859e+00 7.1993147557346679e+00 2.5874141014246053e+01 -3 -3 0
2893 965 3 4.0999999999999998e-01 2.5018226411525273e+00 1.0180485718736056e+00 2.4158459988408502e+01 4 0 0
5760 1920 3 4.0999999999999998e-01 3.9751212159731200e+00 2.5425430347541900e+00 2.8859045656426694e+01 -1 -1 6
3172 1058 3 4.0999999999999998e-01 6.1125105127329906e+00 7.9156006502634124e-01 2.3125064650178469e+01 4 6 0
2883 961 3 4.0999999999999998e-01 5.6660136943898083e+00 2.7944783244927689e+00 2.4905214101126575e+01 -5 -3 6
5681 1894 4 -8.1999999999999995e-01 5.7123890212758726e+00 1.0336153332810985e+01 2.2399244918545989e+01 3 -1 0
5027 1676 4 -8.1999999999999995e-01 7.3801604025667737e+00 6.7849127167058212e+00 3.0050319624197222e+01 -1 -3 7