LAMMPS data file via write_data, version 5 Jun 2019, timestep = 2540000

7349 atoms
5 atom types
4899 bonds
2 bond types
2451 angles
2 angle types
1 impropers
1 improper types

1.5519297081455363e-01 4.1845807029189409e+01 xlo xhi
1.5469297081455124e-01 4.1845307029189406e+01 ylo yhi
1.5469297081455124e-01 4.1845307029189406e+01 zlo zhi

#Masses
#
#1 12.01
#2 40.08
#3 1.01
#4 16
#5 16
#
#Bond Coeffs # harmonic
#
#1 20.4246 1.3042
#2 22.965 1.012

Atoms # full

2212 738 3 4.0999999999999998e-01 5.7983534696610128e+00 6.2399528033475056e+00 4.5532160772584040e+00 -1 0 0
1379 460 4 -8.1999999999999995e-01 2.3937341377440657e+00 4.3974843421651970e+00 4.7234093037419571e+00 0 0 0
944 315 4 -8.1999999999999995e-01 3.0149044797683220e+00 9.0829231869616365e+00 8.6782133692276151e+00 0 0 1
2587 863 3 4.0999999999999998e-01 1.0325639106470332e+01 2.0696561295625870e+00 4.9539358104021769e+00 2 -1 -1
2243 748 4 -8.1999999999999995e-01 8.5051330262410509e+00 7.1137311368817073e+00 1.5164535405179442e+00 0 2 0
2589 863 3 4.0999999999999998e-01 8.9745855614348642e+00 1.1465803327833946e+00 5.1232410319958763e+00 2 -1 -1
2494 832 3 4.0999999999999998e-01 5.6739886441322298e+00 5.9936952369599918e+00 6.8679679029280880e+00 0 1 1
824 275 4 -8.1999999999999995e-01 4.4281241819907907e-01 7.7248560130931940e+00 2.9598617187215455e+00 0 1 1
2214 738 3 4.0999999999999998e-01 4.7078562791011169e+00 5.1759633795434512e+00 4.9104171465705386e+00 -1 0 0
2102 701 4 -8.1999999999999995e-01 1.0477312331749337e+01 8.8805591087061408e+00 1.1258482778829744e+00 -1 0 1
5447 1816 4 -8.1999999999999995e-01 9.0958291837776688e+00 3.7524272985010265e+00 6.8565866321646345e+00 0 1 -1
2495 832 4 -8.1999999999999995e-01 5.7048504215745419e+00 6.1735233728422383e+00 7.8881189257062863e+00 0 1 1
724 242 3 4.0999999999999998e-01 7.2993243924389146e+00 7.5144898277754120e+00 5.5040555103356448e-01 -1 2 0
2090 697 4 -8.1999999999999995e-01 1.1519088437427898e+00 4.7541084463429428e-01 5.7204437858147577e+00 1 0 0
4092 1364 3 4.0999999999999998e-01 5.3099945763778589e+00 5.8904939594190131e-01 7.0315223411159646e+00 0 0 1
2242 748 3 4.0999999999999998e-01 8.8414774006754211e+00 6.5557174147756987e+00 2.2555003343386613e+00 0 2 0
738 246 3 4.0999999999999998e-01 3.3336773069810000e-01 1.6482908225909645e+00 1.1400368898009887e+00 2 -1 0
6994 2332 3 4.0999999999999998e-01 3.8306166924777387e+00 1.2562074429881191e+00 1.0832620712600303e+00 2 2 0
2071 691 3 4.0999999999999998e-01 7.4640758552320250e+00 2.7394456532478086e+00 4.2031250521409023e+00 1 0 3
6805 2269 3 4.0999999999999998e-01 5.9645981060074176e+00 9.0320018612754502e+00 5.7358029981536456e+00 1 0 0
2649 883 3 4.0999999999999998e-01 2.6338686036655892e+00 7.6900015347908601e+00 5.4454532981301540e+00 0 0 0
3924 1308 3 4.0999999999999998e-01 3.8575579619231180e+00 7.9172766739008464e+00 9.6383496208499633e+00 0 1 1
5768 1923 4 -8.1999999999999995e-01 8.0268568188902005e+00 2.5280888950330125e+00 1.4126174530542273e+00 2 0 -2
1024 342 3 4.0999999999999998e-01 9.5581366856677796e+00 8.1064301063928497e+00 5.6125629628208138e+00 1 0 1
3588 1196 3 4.0999999999999998e-01 6.7938667544253599e+00 1.0243744984694838e+00 5.6154886539815196e+00 -1 0 0
1380 460 3 4.0999999999999998e-01 1.3822760531312992e+00 4.1923525556166146e+00 4.4738130497806479e+00 0 0 0
1249 417 3 4.0999999999999998e-01 5.4166440332503285e+00 2.9451612603690873e+00 2.1257040081876371e+00 0 1 2
4661 1554 4 -8.1999999999999995e-01 3.1009071618692476e+00 7.0234706015957542e+00 3.8391525898976964e+00 0 1 -1
1378 460 3 4.0999999999999998e-01 2.8367958047192028e+00 3.4420094534961860e+00 4.7301477419575662e+00 0 0 0
2298 766 3 4.0999999999999998e-01 3.4117343568235410e+00 6.0983793910876463e+00 8.8692338853182910e+00 2 1 1
3116 1039 4 -8.1999999999999995e-01 9.2194808196805536e+00 1.0276936044568242e+01 5.0273455332436647e+00 0 -2 1
4683 1561 3 4.0999999999999998e-01 1.4370332949968914e+00 5.2561723473831901e+00 7.8193710696271497e+00 1 0 1
4682 1561 4 -8.1999999999999995e-01 8.8224524737195298e-01 4.9951200877713227e+00 6.9940122333375649e+00 1 0 1
1400 467 4 -8.1999999999999995e-01 6.6173217327778797e+00 3.2957927511627152e+00 7.9707291794979094e+00 1 -1 -1
3586 1196 3 4.0999999999999998e-01 6.8682339365703404e+00 3.3860122283312549e-01 4.1365664008981176e+00 -1 0 0
1026 342 3 4.0999999999999998e-01 8.0397781053578932e+00 7.7280308302040144e+00 5.8152918817947494e+00 1 0 1
2213 738 4 -8.1999999999999995e-01 5.6045060224787671e+00 5.5270320601172678e+00 5.2911031284940790e+00 -1 0 0
2960 987 4 -8.1999999999999995e-01 3.2837352787290168e+00 1.8259548633050198e+00 4.4261042563329358e+00 0 0 2
943 315 3 4.0999999999999998e-01 2.5563055286392959e+00 9.9718512907589414e+00 8.7283393512368885e+00 0 0 1
822 274 3 4.0999999999999998e-01 9.9248624246040311e+00 5.8230177924867590e+00 4.4257300712140939e+00 -2 0 1
2648 883 4 -8.1999999999999995e-01 2.2408777601126646e+00 7.8984257062588661e+00 6.3723114179954461e+00 0 0 0
4662 1554 3 4.0999999999999998e-01 3.0117137367374278e+00 6.0002594162174994e+00 3.8713103699303444e+00 0 1 -1
3923 1308 4 -8.1999999999999995e-01 4.5729609228929284e+00 7.2584422598359817e+00 9.9507961164815715e+00 0 1 1
2091 697 3 4.0999999999999998e-01 1.8315798198108648e+00 1.2384016936179123e+00 5.3684189846189216e+00 1 0 0
3922 1308 3 4.0999999999999998e-01 5.0721914084313928e+00 6.9343967483591635e+00 9.1139592071668201e+00 0 1 1
4091 1364 4 -8.1999999999999995e-01 5.1843920218409361e+00 1.3912716972625669e+00 6.4292898837599104e+00 0 0 1
4660 1554 3 4.0999999999999998e-01 4.0723761510582381e+00 7.2455722988248326e+00 3.5770965397427803e+00 0 1 -1
2647 883 3 4.0999999999999998e-01 1.1796137847594279e+00 7.7828605410755980e+00 6.3801411325782631e+00 0 0 0
4740 1580 3 4.0999999999999998e-01 4.4693028822820136e+00 7.3109994600360242e+00 5.4273420123091354e-01 2 2 1
5355 1785 3 4.0999999999999998e-01 4.1825414368220617e+00 9.9894907865327554e+00 6.9923785445652067e+00 1 0 0
6620 2207 4 -8.1999999999999995e-01 3.1492386754651336e+00 4.7558321943815685e+00 1.2889983170605437e+00 0 -1 0
945 315 3 4.0999999999999998e-01 2.7233005285780338e+00 8.6460812708785770e+00 7.8169976251033599e+00 0 0 1
5714 1905 4 -8.1999999999999995e-01 8.5471405679323098e+00 6.4945610382004828e+00 8.5069342008535962e+00 0 -1 0
6807 2269 3 4.0999999999999998e-01 7.4916801140957165e+00 9.4416807374054805e+00 5.0740924744981850e+00 1 0 0
6806 2269 4 -8.1999999999999995e-01 6.8602740439946830e+00 8.6686280782393546e+00 5.2811884134422513e+00 1 0 0
5448 1816 3 4.0999999999999998e-01 9.1967022156128309e+00 4.7177586251402444e+00 7.1393176965184750e+00 0 1 -1
5354 1785 4 -8.1999999999999995e-01 4.6970555045400912e+00 1.0322905239662752e+01 6.1801717065189870e+00 1 0 0
1399 467 3 4.0999999999999998e-01 6.4457267245893535e+00 3.2652746950729514e+00 8.9843353780866053e+00 1 -1 -1
246 82 3 4.0999999999999998e-01 1.0485877141827448e+01 2.5430554239148462e-01 9.3940429590848307e-01 0 2 0
2128 710 3 4.0999999999999998e-01 9.8410018440704814e+00 1.3378839526524344e+00 9.4033449955812909e+00 0 0 1
4784 1595 4 -8.1999999999999995e-01 3.4076013277874941e+00 3.2223996887229864e+00 1.0147222006640494e+01 1 0 0
5637 1879 3 4.0999999999999998e-01 1.0106173835729804e+01 1.0009282125360587e+01 8.1497888701245866e+00 -1 1 1
1250 417 4 -8.1999999999999995e-01 4.5274588182187152e+00 2.4772491978569064e+00 2.0990015383450986e+00 0 1 2
5446 1816 3 4.0999999999999998e-01 8.2488845388956058e+00 3.3026954637312009e+00 7.3124037369743684e+00 0 1 -1
2961 987 3 4.0999999999999998e-01 3.8157637577811889e+00 1.8662539722466887e+00 3.5377619746325504e+00 0 0 2
2588 863 4 -8.1999999999999995e-01 9.9579581553906014e+00 1.1308126426795895e+00 5.2530441136562853e+00 2 -1 -1
823 275 3 4.0999999999999998e-01 1.4675283165867432e+00 7.6596077237427052e+00 3.1199209558975460e+00 0 1 1
2297 766 4 -8.1999999999999995e-01 2.6955332606417985e+00 5.3394023644332140e+00 8.9009152078747888e+00 2 1 1
1251 417 3 4.0999999999999998e-01 3.8502223313275805e+00 3.2233729372421740e+00 1.7324039234265396e+00 0 1 2
4681 1561 3 4.0999999999999998e-01 1.4783347573829546e+00 4.8884184859077333e+00 6.1455577650523487e+00 1 0 1
6995 2332 4 -8.1999999999999995e-01 3.6097177159911231e+00 6.7933621662071420e-01 3.0404991536175030e-01 2 2 0
5713 1905 3 4.0999999999999998e-01 9.2443499842525210e+00 6.6682604648797748e+00 9.2618902675613644e+00 0 -1 0
2129 710 4 -8.1999999999999995e-01 1.0424591143836498e+01 2.0600125285245161e+00 8.9694486800564430e+00 0 0 1
2496 832 3 4.0999999999999998e-01 6.7216389324586530e+00 6.3082924692364664e+00 8.0064644799786731e+00 0 1 1
1401 467 3 4.0999999999999998e-01 6.2671375074946383e+00 4.2200052218177504e+00 7.6732677274678940e+00 1 -1 -1
3805 1269 3 4.0999999999999998e-01 9.2814456971117565e+00 5.9080356318195157e+00 6.5044109632667835e-01 -1 2 0
4739 1580 4 -8.1999999999999995e-01 3.4226483681359836e+00 7.3313018495937685e+00 5.5013127066769019e-01 2 2 1
5922 1974 3 4.0999999999999998e-01 6.4441361435284925e+00 7.8945759660501285e+00 3.9790908153500411e+00 1 1 -1
2491 831 3 4.0999999999999998e-01 2.8654733176639682e+00 9.7972362004456510e+00 3.1577668100819234e+00 -2 -3 -1
2519 840 4 -8.1999999999999995e-01 5.7291714014755177e+00 2.0387222066697404e+00 1.0476394891574291e+01 0 3 0
2130 710 3 4.0999999999999998e-01 9.9367320493491071e+00 2.3960888015454209e+00 8.0963849549084852e+00 0 0 1
3587 1196 4 -8.1999999999999995e-01 7.4041610667102402e+00 9.8768193848565822e-01 4.7346807120042316e+00 -1 0 0
6289 2097 3 4.0999999999999998e-01 1.7361875120889703e+00 6.0569290134066520e+00 1.0167001763837941e+01 -2 -1 0
6621 2207 3 4.0999999999999998e-01 2.1421154254872032e+00 4.9094503562310132e+00 1.4449158495491836e+00 0 -1 0
2073 691 3 4.0999999999999998e-01 6.4371516955311998e+00 4.0471134387136187e+00 4.4775871007397328e+00 1 0 3
5769 1923 3 4.0999999999999998e-01 8.1126484088340103e+00 1.5128118819029177e+00 1.2027582970437425e+00 2 0 -2
6619 2207 3 4.0999999999999998e-01 3.5258533121038638e+00 5.6473386472474445e+00 8.7004778464188415e-01 0 -1 0
5921 1974 4 -8.1999999999999995e-01 5.7148635518491959e+00 7.3907469387269504e+00 3.3794635619814466e+00 1 1 -1
737 246 4 -8.1999999999999995e-01 2.8887122800317355e-01 2.1508467685306898e+00 2.1201799844087926e-01 2 -1 0
5767 1923 3 4.0999999999999998e-01 7.8159531900463062e+00 2.9009030289098461e+00 2.3765947116378405e+00 2 0 -2
2492 831 4 -8.1999999999999995e-01 2.6951294557515002e+00 9.8173189663894078e+00 2.1825248778979689e+00 -2 -3 -1
2959 987 3 4.0999999999999998e-01 3.9861826078454263e+00 1.6705999729204486e+00 5.2006478780927203e+00 0 0 2
820 274 3 4.0999999999999998e-01 8.7626018140540936e+00 4.8976934581597122e+00 3.8936932097500967e+00 -2 0 1
5920 1974 3 4.0999999999999998e-01 6.0963527376429187e+00 7.5882624513444226e+00 2.4323788462719218e+00 1 1 -1
3115 1039 3 4.0999999999999998e-01 9.9193736289527479e+00 1.0311410632429666e+01 4.2881273306332677e+00 0 -2 1
821 274 4 -8.1999999999999995e-01 9.5688746707771131e+00 5.3268018401737747e+00 3.6225697995007935e+00 -2 0 1
2887 963 3 4.0999999999999998e-01 1.0260864962396200e+01 3.3175242397580562e+00 1.0097779584514175e+01 1 2 1
2493 831 3 4.0999999999999998e-01 2.9039999160408123e+00 8.9926342179499184e+00 1.5651727310662988e+00 -2 -3 -1
4090 1364 3 4.0999999999999998e-01 5.6091929200079029e+00 2.1893303912143378e+00 7.0086026943926978e+00 0 0 1
2296 766 3 4.0999999999999998e-01 3.0629855371637751e+00 4.4594795587032596e+00 9.3744182653548283e+00 2 1 1
3800 1267 4 -8.1999999999999995e-01 8.3803517680610486e+00 4.7469978683874392e-01 9.9715645993352489e+00 0 0 0
2072 691 4 -8.1999999999999995e-01 7.1562874899364060e+00 3.6289822680250898e+00 3.8743092133552874e+00 1 0 3
1025 342 4 -8.1999999999999995e-01 8.9394593798992581e+00 7.2646353446237288e+00 5.8394778358928523e+00 1 0 1
6486 2162 3 4.0999999999999998e-01 6.9639043097951161e+00 1.0023698193366291e+01 8.7697969811171905e+00 -1 0 0
2244 748 3 4.0999999999999998e-01 9.2105823556225559e+00 7.8334899768355273e+00 1.3461943199028286e+00 0 2 0
5715 1905 3 4.0999999999999998e-01 8.8674712715067603e+00 7.0873743580963176e+00 7.7283612637821335e+00 0 -1 0
4785 1595 3 4.0999999999999998e-01 4.1052428222530439e+00 2.4166549542200091e+00 1.0195919006338627e+01 1 0 0
6758 2253 4 -8.1999999999999995e-01 1.0529349307582811e+01 6.6420187956083288e+00 1.0530773269219404e+01 0 2 1
4783 1595 3 4.0999999999999998e-01 2.5203608184700004e+00 2.9641450411554522e+00 1.0512188416664928e+01 1 0 0
6759 2253 3 4.0999999999999998e-01 1.0231670963715983e+01 5.6353180663686349e+00 1.0573848837042593e+01 0 2 1
3580 1194 3 4.0999999999999998e-01 6.8367068729093603e+00 2.0159010022637269e+00 1.7201995919858707e+01 0 0 0
7324 2442 3 4.0999999999999998e-01 3.7830133338048384e+00 4.5311210249805915e+00 1.8111402305582434e+01 1 0 -1
3773 1258 4 -8.1999999999999995e-01 3.6653064395112300e-01 5.3875417019209699e+00 1.6029567864514036e+01 0 0 0
3949 1317 3 4.0999999999999998e-01 3.6688906572528870e+00 1.5621695891708418e+00 2.0564527673937260e+01 0 1 -1
6867 2289 3 4.0999999999999998e-01 1.0677358820107432e+00 1.0250835494054593e+00 1.1064253708670755e+01 1 1 0
1684 562 3 4.0999999999999998e-01 7.9811619044037077e+00 5.4519019155615318e+00 1.6829004269549515e+01 1 0 0
5156 1719 4 -8.1999999999999995e-01 9.0306219372349172e+00 9.5993789883548475e-01 1.4265003004832872e+01 2 -1 0
6900 2300 3 4.0999999999999998e-01 8.3366630848053980e+00 5.5679931412403982e-01 1.7116717129558687e+01 -1 2 -1
2792 931 4 -8.1999999999999995e-01 5.6999728678008212e+00 7.4000305103952133e+00 1.7319150286693098e+01 0 2 -1
1862 621 4 -8.1999999999999995e-01 4.8382867661569646e+00 1.0304663405500685e+01 2.0058548883371273e+01 0 0 1
1881 627 3 4.0999999999999998e-01 7.8532707455959949e+00 2.1370803398440213e-01 2.0699000980254201e+01 -1 0 -2
3422 1141 4 -8.1999999999999995e-01 3.2679356149108179e+00 3.4655660783104087e+00 1.5100472639325615e+01 0 -1 0
2559 853 3 4.0999999999999998e-01 4.3442199789995017e+00 6.7206831140181942e+00 1.8420300064565488e+01 1 0 3
2791 931 3 4.0999999999999998e-01 5.6932942846812225e+00 8.4402767611200975e+00 1.6969699697143746e+01 0 2 -1
4526 1509 4 -8.1999999999999995e-01 7.4427838566240725e+00 4.6879643106457323e+00 2.0301500833117053e+01 1 1 1
7017 2339 3 4.0999999999999998e-01 5.2892267769148571e+00 8.0283424201459344e+00 1.3548424587085943e+01 -1 -3 0
5155 1719 3 4.0999999999999998e-01 8.4472349647519742e+00 1.4465002981029205e+00 1.3522231297794953e+01 2 -1 0
3811 1271 3 4.0999999999999998e-01 5.2299999443036951e+00 1.0463601017670916e+01 1.7107390871401869e+01 0 -2 1
7016 2339 4 -8.1999999999999995e-01 5.8952415200319335e+00 7.1990824856058726e+00 1.3532128490789935e+01 -1 -3 0
4365 1455 3 4.0999999999999998e-01 1.1448885865167135e+00 2.1894151436848603e+00 1.7540784210406180e+01 1 0 -1
7326 2442 3 4.0999999999999998e-01 3.6073672097249054e+00 3.6340178019485214e+00 1.6671525129942122e+01 1 0 -1
2488 830 3 4.0999999999999998e-01 1.5302486562607791e+00 8.8241210325458823e+00 1.5582333498415306e+01 -2 0 0
4406 1469 4 -8.1999999999999995e-01 1.0535964974753995e+00 4.6643139433859954e-01 1.5339463778657240e+01 1 -1 0
5477 1826 4 -8.1999999999999995e-01 7.4081141021587280e+00 3.9623409761010486e+00 1.1946083162153686e+01 0 0 0
6291 2097 3 4.0999999999999998e-01 1.3857420885983840e+00 7.5672380977056077e+00 1.0956709519233073e+01 -2 -1 0
1150 384 3 4.0999999999999998e-01 9.5863556598826027e-01 2.6817656838352453e+00 1.2544036969163077e+01 0 -1 -1
2070 690 3 4.0999999999999998e-01 7.0045699296061628e+00 6.7743173233209379e+00 1.4853289073734343e+01 0 0 1
683 228 4 -8.1999999999999995e-01 5.5189478707997948e+00 1.8398145475334369e+00 1.8141693183010322e+01 0 0 1
165 55 3 4.0999999999999998e-01 3.6170225814161259e+00 8.9932287307389505e+00 1.4091465877459033e+01 1 1 0
4146 1382 3 4.0999999999999998e-01 7.5645620611607534e+00 9.6962081968372722e+00 1.1944992718994158e+01 1 0 0
2180 727 4 -8.1999999999999995e-01 6.5875153596386085e+00 2.2214276118730805e+00 1.3935123901941338e+01 0 1 2
2520 840 3 4.0999999999999998e-01 5.7945214966634211e+00 1.0951643417859815e+00 1.0892566880768204e+01 0 3 0
6290 2097 4 -8.1999999999999995e-01 1.1339718167256443e+00 6.5590084427780626e+00 1.0882439919838124e+01 -2 -1 0
1199 400 4 -8.1999999999999995e-01 1.6872581523111607e+00 9.2432591653846679e+00 1.1806446830963868e+01 0 1 2
6225 2075 3 4.0999999999999998e-01 7.4193785299014703e+00 7.4829683112375633e+00 1.2105168505925047e+01 -1 1 1
964 322 3 4.0999999999999998e-01 2.4178078937999179e+00 6.6917520413015579e+00 1.7788596445502066e+01 0 1 1
2793 931 3 4.0999999999999998e-01 6.5821544698494190e+00 6.9854013422105643e+00 1.6856890849517676e+01 0 2 -1
6114 2038 3 4.0999999999999998e-01 4.0645320097318347e+00 5.7799445318150049e+00 1.5022897173420027e+01 1 2 2
1151 384 4 -8.1999999999999995e-01 1.2413724825706824e+00 3.3044568296894195e+00 1.3337881943073763e+01 0 -1 -1
4684 1562 3 4.0999999999999998e-01 6.0485704667926985e+00 2.5930021396440912e+00 1.9835031944952249e+01 1 -2 0
1152 384 3 4.0999999999999998e-01 8.7067566528238427e-01 4.2124517165928097e+00 1.3062364881341036e+01 0 -1 -1
6866 2289 4 -8.1999999999999995e-01 7.9034691868175644e-01 1.9642418472357637e+00 1.1121416437408058e+01 1 1 0
5284 1762 3 4.0999999999999998e-01 7.7557772366737066e+00 8.8683688952326598e+00 1.8971755910340530e+01 0 0 0
2068 690 3 4.0999999999999998e-01 8.5211600319098952e+00 7.3092837424994022e+00 1.5503283743831656e+01 0 0 1
2558 853 4 -8.1999999999999995e-01 3.7235221177596558e+00 6.0444214964503882e+00 1.8815741122376874e+01 1 0 3
5478 1826 3 4.0999999999999998e-01 7.2531659441149241e+00 3.2299847202714052e+00 1.2658784042259343e+01 0 0 0
6113 2038 4 -8.1999999999999995e-01 3.4344310606778579e+00 6.5242642569667444e+00 1.4789288890858710e+01 1 2 2
3812 1271 4 -8.1999999999999995e-01 5.8662204145270289e+00 1.0229721836674466e+01 1.6342276193315161e+01 0 -2 1
5285 1762 4 -8.1999999999999995e-01 8.5805828522279644e+00 9.3424661623125811e+00 1.8432784492540875e+01 0 0 0
3581 1194 4 -8.1999999999999995e-01 7.6030494460698739e+00 2.1667408447067866e+00 1.6538272165623784e+01 0 0 0
6475 2159 3 4.0999999999999998e-01 4.6626522512882271e+00 1.8647789598688058e-01 1.5871629499367344e+01 0 1 0
4407 1469 3 4.0999999999999998e-01 3.5963509160547896e-01 1.2448807687410717e+00 1.5396321142182673e+01 1 -1 0
7318 2440 3 4.0999999999999998e-01 7.1591090570570772e+00 6.3986490983471747e+00 1.9937689954862449e+01 2 1 1
330 110 3 4.0999999999999998e-01 1.1465700437269859e+00 6.0562814821869333e+00 1.2466517039327103e+01 1 0 -1
3423 1141 3 4.0999999999999998e-01 2.4500931994638027e+00 3.3636379514124131e+00 1.4496624510637803e+01 0 -1 0
2889 963 3 4.0999999999999998e-01 9.0004546457477002e+00 3.7838754695136800e+00 1.1078940933039849e+01 1 2 1
7319 2440 4 -8.1999999999999995e-01 6.9401547868414868e+00 7.3700008067412259e+00 1.9861240177745472e+01 2 1 1
2888 963 4 -8.1999999999999995e-01 9.9608644845101839e+00 4.0047862537173868e+00 1.0775113248938116e+01 1 2 1
1198 400 3 4.0999999999999998e-01 8.8417613609182677e-01 9.9059275085106417e+00 1.1910570330391378e+01 0 1 2
3813 1271 3 4.0999999999999998e-01 5.2835936353118376e+00 1.0078877694062284e+01 1.5482561535191683e+01 0 -2 1
7273 2425 3 4.0999999999999998e-01 1.3141428713263918e+00 2.1162013306920437e+00 2.0085983504321881e+01 0 0 1
6999 2333 3 4.0999999999999998e-01 1.9368154100173718e+00 5.0758513172364739e-01 1.7825742285496752e+01 0 0 2
965 322 4 -8.1999999999999995e-01 1.9058133644317101e+00 7.3033827396660076e+00 1.7153831091211803e+01 0 1 1
2181 727 3 4.0999999999999998e-01 6.7483043012401680e+00 2.8223298507331447e+00 1.4755114999887109e+01 0 1 2
6477 2159 3 4.0999999999999998e-01 3.7260210994671930e+00 5.7086451596390864e-01 1.4518248582001888e+01 0 1 0
5773 1925 3 4.0999999999999998e-01 3.1079298598214633e-01 9.9518121176303467e+00 1.3857180325082158e+01 1 1 1
4364 1455 4 -8.1999999999999995e-01 1.7416918037047540e+00 2.0298549531669203e+00 1.8359366988710075e+01 1 0 -1
6476 2159 4 -8.1999999999999995e-01 4.3308056794457164e+00 9.0315711473224558e-01 1.5245194526350138e+01 0 1 0
966 322 3 4.0999999999999998e-01 1.3283793958197971e+00 6.6513428503136636e+00 1.6582715979303710e+01 0 1 1
3421 1141 3 4.0999999999999998e-01 3.5993653765869462e+00 2.5524773623834038e+00 1.5407751322932574e+01 0 -1 0
1685 562 4 -8.1999999999999995e-01 8.1396667465524448e+00 4.6054805732609019e+00 1.7431997841041234e+01 1 0 0
7325 2442 4 -8.1999999999999995e-01 3.4483452087495556e+00 3.6285449965247607e+00 1.7706827686659867e+01 1 0 -1
6224 2075 4 -8.1999999999999995e-01 8.0875452951923883e+00 8.1571087406600196e+00 1.2019559618823694e+01 -1 1 1
329 110 4 -8.1999999999999995e-01 1.0283755092751379e+00 6.0905152888020302e+00 1.3489359382010148e+01 1 0 -1
2069 690 4 -8.1999999999999995e-01 7.6830498274288344e+00 6.6766122660845406e+00 1.5656526674725358e+01 0 0 1
3633 1211 3 4.0999999999999998e-01 3.7126442705751659e+00 9.7406893107305077e+00 1.8681427341253009e+01 0 1 0
3774 1258 3 4.0999999999999998e-01 5.4097436918044883e-01 5.6409373221027934e+00 1.5025066301320679e+01 0 0 0
682 228 3 4.0999999999999998e-01 5.1415526292202500e+00 8.7760298327558972e-01 1.7953441036356310e+01 0 0 1
2179 727 3 4.0999999999999998e-01 5.6867301579704082e+00 1.7865827247045991e+00 1.3956725508501457e+01 0 1 2
7015 2339 3 4.0999999999999998e-01 5.4873399454879657e+00 6.6115831185078608e+00 1.2789896889307691e+01 -1 -3 0
3582 1194 3 4.0999999999999998e-01 7.8880612362239377e+00 3.1498965822428966e+00 1.6751298593185172e+01 0 0 0
570 190 3 4.0999999999999998e-01 9.8196663686780816e+00 4.2481213266688229e+00 1.7055125852874660e+01 -1 2 1
2489 830 4 -8.1999999999999995e-01 1.7757981210061571e+00 9.6317144424789962e+00 1.5057524955913941e+01 -2 0 0
6112 2038 3 4.0999999999999998e-01 3.4460167833039699e+00 7.1695882272385765e+00 1.5529142907242250e+01 1 2 2
2957 986 4 -8.1999999999999995e-01 4.8078730160604364e+00 5.1343248033432545e+00 1.1710392600052682e+01 0 -1 -1
328 110 3 4.0999999999999998e-01 2.0141313188623231e+00 6.2574979233141441e+00 1.3825625134133963e+01 1 0 -1
163 55 3 4.0999999999999998e-01 4.4088293024316583e+00 9.9422622506435303e+00 1.3116858897827397e+01 1 1 0
2557 853 3 4.0999999999999998e-01 3.4776731454145096e+00 6.3211256436131427e+00 1.9772517338078863e+01 1 0 3
2484 828 3 4.0999999999999998e-01 9.0215142228076548e+00 8.5108005041817272e+00 1.3515482456847222e+01 -1 1 0
684 228 3 4.0999999999999998e-01 4.7017290699495220e+00 2.4410510681203235e+00 1.7982009280203069e+01 0 0 1
3631 1211 3 4.0999999999999998e-01 2.5714885012898829e+00 8.8174934139089522e+00 1.7874936171480204e+01 0 1 0
5286 1762 3 4.0999999999999998e-01 9.5063464129461472e+00 9.0546084418164892e+00 1.8748648831099892e+01 0 0 0
3632 1211 4 -8.1999999999999995e-01 3.0896577102800142e+00 9.7166609581080685e+00 1.7836102814061405e+01 0 1 0
5476 1826 3 4.0999999999999998e-01 6.6160750600389715e+00 4.6522762660734482e+00 1.1997653982471890e+01 0 0 0
4363 1455 3 4.0999999999999998e-01 2.5755151500483220e+00 2.6837979253329949e+00 1.8318677758646320e+01 1 0 -1
4527 1509 3 4.0999999999999998e-01 8.3785626105344360e+00 4.5144140317438461e+00 2.0749186932526985e+01 1 1 1
164 55 4 -8.1999999999999995e-01 4.5720729617627960e+00 9.3189613776922027e+00 1.3914392593004880e+01 1 1 0
4525 1509 3 4.0999999999999998e-01 6.7875371197541137e+00 3.9576241636109799e+00 2.0608625897961797e+01 1 1 1
1686 562 3 4.0999999999999998e-01 7.9640604471358962e+00 4.8483292612932587e+00 1.8459744251134445e+01 1 0 0
6223 2075 3 4.0999999999999998e-01 8.6993689850584381e+00 7.9009817027709142e+00 1.1230704745556741e+01 -1 1 1
2956 986 3 4.0999999999999998e-01 4.2059155814737244e+00 4.4665082267336507e+00 1.1256161074838120e+01 0 -1 -1
2482 828 3 4.0999999999999998e-01 9.4470216881171680e+00 9.2510114756059281e+00 1.4943893810024784e+01 -1 1 0
2518 840 3 4.0999999999999998e-01 6.3316983834525900e+00 2.6730935243885465e+00 1.1044020711518730e+01 0 3 0
2483 828 4 -8.1999999999999995e-01 9.5430791252291858e+00 8.3437812176450024e+00 1.4385823191924915e+01 -1 1 0
7320 2440 3 4.0999999999999998e-01 6.3652105234388712e+00 7.5747234795049136e+00 1.9036148124190078e+01 2 1 1
364 122 3 4.0999999999999998e-01 8.1700311035829518e+00 1.0409914853413181e+01 1.6337842431672662e+01 2 2 0
2958 986 3 4.0999999999999998e-01 4.7222727216503113e+00 6.0106637649595429e+00 1.1094473933076644e+01 0 -1 -1
1200 400 3 4.0999999999999998e-01 2.5843702129101693e+00 9.7425069515031417e+00 1.1817444501817299e+01 0 1 2
5157 1719 3 4.0999999999999998e-01 8.6620473493761612e+00 1.2874456414834330e+00 1.5158609893476669e+01 2 -1 0
4685 1562 4 -8.1999999999999995e-01 5.7526110199564151e+00 2.6979502586552369e+00 2.0815092385588635e+01 1 -2 0
7274 2425 4 -8.1999999999999995e-01 5.8363486851440971e-01 2.1397101775291598e+00 2.0810907160435896e+01 0 0 1
3772 1258 3 4.0999999999999998e-01 2.9854722071488082e-01 4.3754758291426032e+00 1.6181819059209680e+01 0 0 0
1863 621 3 4.0999999999999998e-01 4.4356546202984246e+00 9.5610218782063381e+00 2.0640596004727492e+01 0 0 1
3335 1112 4 -8.1999999999999995e-01 3.4866169908908904e+00 7.6443347105480202e+00 2.0964847668902987e+01 0 2 0
2490 830 3 4.0999999999999998e-01 1.9311873429132009e+00 1.0434423030362773e+01 1.5680068306984399e+01 -2 0 0
4936 1646 3 4.0999999999999998e-01 8.8059113629708232e+00 4.6063058862854662e+00 3.0122238877747684e+01 0 -1 1
4398 1466 3 4.0999999999999998e-01 4.4798948783667685e+00 5.5977750075575363e+00 3.0139366879248612e+01 1 0 1
3527 1176 4 -8.1999999999999995e-01 6.3716370065594399e+00 1.9405270605637599e+00 2.7607412362857591e+01 -1 1 0
2359 787 3 4.0999999999999998e-01 6.2435953224900071e+00 6.7184805965605401e+00 2.5373942580853271e+01 1 1 1
2301 767 3 4.0999999999999998e-01 8.2300657553615668e+00 6.9317368202708964e+00 3.1283229934735651e+01 1 0 0
3757 1253 3 4.0999999999999998e-01 4.7949208710927902e+00 2.2555705033058238e+00 2.7978683116137102e+01 1 1 -1
1812 604 3 4.0999999999999998e-01 4.0671735489797554e+00 6.8570681528175292e+00 2.5764409403916979e+01 1 2 -1
6720 2240 3 4.0999999999999998e-01 8.3895044671732819e+00 2.2366664996078196e+00 2.4947188256360302e+01 2 1 1
2299 767 3 4.0999999999999998e-01 8.0278161902528744e+00 7.1757898079861295e+00 2.9576271252835699e+01 1 0 0
4396 1466 3 4.0999999999999998e-01 6.2629122730711817e+00 5.7385168528814026e+00 3.0441503700955394e+01 1 0 1
6344 2115 4 -8.1999999999999995e-01 7.5488048776165173e-01 4.2637517299093046e+00 2.2432914481390203e+01 1 -1 1
3758 1253 4 -8.1999999999999995e-01 3.7794816010957222e+00 1.9483873300261083e+00 2.8104444938250548e+01 1 1 -1
5511 1837 3 4.0999999999999998e-01 7.3290649167171731e+00 8.5786545814930477e+00 2.2989981378643140e+01 1 1 1
1811 604 4 -8.1999999999999995e-01 3.2722877687355729e+00 7.2551619715577482e+00 2.5308770947224158e+01 1 2 -1
5393 1798 4 -8.1999999999999995e-01 4.3676132973827384e+00 9.8116450400725999e+00 2.5558815792987250e+01 0 0 -1
3220 1074 3 4.0999999999999998e-01 2.7610102570385875e+00 5.1929988996193348e+00 2.8552522493343037e+01 -1 0 1
3675 1225 3 4.0999999999999998e-01 5.9179783595783588e+00 9.0175111800279026e+00 2.5405269472341605e+01 2 0 0
5858 1953 4 -8.1999999999999995e-01 6.4941436764030085e+00 1.0016665730768022e+01 3.0519011336833096e+01 1 0 0
7160 2387 4 -8.1999999999999995e-01 1.0417500940627460e+00 6.1319861712104125e+00 3.0686496710799435e+01 1 0 -1
6718 2240 3 4.0999999999999998e-01 9.6107683844629168e+00 2.6891451663532409e+00 2.5876347442894652e+01 2 1 1
1273 425 3 4.0999999999999998e-01 8.3199339535148251e+00 3.4593478131420010e+00 2.3025594550059274e+01 0 2 1
4534 1512 3 4.0999999999999998e-01 1.1707126654411248e+00 3.8366747052106991e+00 2.6903388829213007e+01 0 2 -1
3727 1243 3 4.0999999999999998e-01 4.1816233271867773e+00 5.0036819832553849e+00 2.2951661421015476e+01 0 0 0
6775 2259 3 4.0999999999999998e-01 2.9057112114545314e+00 3.9875860039404847e+00 2.4758938834903510e+01 1 -1 -1
4342 1448 3 4.0999999999999998e-01 1.6674186871026651e+00 7.5347322817019720e+00 2.5057581641585923e+01 1 1 -1
6343 2115 3 4.0999999999999998e-01 1.6567076698332888e+00 4.6394622737493592e+00 2.2821294909099290e+01 1 -1 1
3221 1074 4 -8.1999999999999995e-01 2.4381949473376254e+00 4.2327230320189022e+00 2.8536452344669438e+01 -1 0 1
4361 1454 4 -8.1999999999999995e-01 6.7496962184039511e+00 4.6338405936893929e+00 2.7837025411532370e+01 0 0 1
4535 1512 4 -8.1999999999999995e-01 2.0014727805792257e-01 4.1029117719473405e+00 2.6796214958526811e+01 0 2 -1
4397 1466 4 -8.1999999999999995e-01 5.3659317101136272e+00 5.1138835895784265e+00 3.0198543992460941e+01 1 0 1
4344 1448 3 4.0999999999999998e-01 6.3259924590256400e-01 7.9682932024042579e+00 2.3735753776971947e+01 1 1 -1
3673 1225 3 4.0999999999999998e-01 7.5304764095274832e+00 9.2195715873425605e+00 2.4835602402972459e+01 2 0 0
3905 1302 4 -8.1999999999999995e-01 8.7490901057743375e+00 1.4795878279036576e+00 2.9323759326013121e+01 0 1 -1
3222 1074 3 4.0999999999999998e-01 3.0131346889494499e+00 3.4114799879931903e+00 2.8418633297707636e+01 -1 0 1
1524 508 3 4.0999999999999998e-01 6.4431925846774174e+00 1.0207186574442581e+01 2.8738590149899579e+01 0 -1 0
4343 1448 4 -8.1999999999999995e-01 7.2014669608294457e-01 7.8933716713400166e+00 2.4741579793287780e+01 1 1 -1
5152 1718 3 4.0999999999999998e-01 9.6861923190615524e+00 9.2298942314568020e+00 2.3298736034184010e+01 -1 2 1
1880 627 4 -8.1999999999999995e-01 7.6995983064715876e+00 4.9056997741265573e-01 2.1618194118997256e+01 -1 0 -2
3674 1225 4 -8.1999999999999995e-01 6.8980710622674248e+00 8.7428160163236175e+00 2.5556581023137408e+01 2 0 0
2361 787 3 4.0999999999999998e-01 6.2225792483178397e+00 5.4603809284962948e+00 2.6581040003322464e+01 1 1 1
638 213 4 -8.1999999999999995e-01 3.6643322281164838e+00 9.1471404914242793e+00 2.8184404144818092e+01 0 0 -2
798 266 3 4.0999999999999998e-01 5.3607406450991206e+00 4.3585326098791688e+00 2.5084247960083342e+01 1 -2 0