LAMMPS data file via write_data, version 5 Jun 2019, timestep = 17000000

7349 atoms
5 atom types
4899 bonds
2 bond types
2451 angles
2 angle types
1 impropers
1 improper types

1.5519297081455363e-01 4.1845807029189409e+01 xlo xhi
1.5469297081455124e-01 4.1845307029189406e+01 ylo yhi
1.5469297081455124e-01 4.1845307029189406e+01 zlo zhi

#Masses
#
#1 12.01
#2 40.08
#3 1.01
#4 16
#5 16
#
#Bond Coeffs # harmonic
#
#1 20.4246 1.3042
#2 22.965 1.012

Atoms # full

6460 2154 3 4.0999999999999998e-01 6.4663627604340954e+00 4.5907523652699176e+00 4.9919326531358408e+00 -2 1 3
4886 1629 4 -8.1999999999999995e-01 1.1397983059591714e+00 4.5112231759330577e+00 2.8363037182586446e+00 4 0 -3
5870 1957 4 -8.1999999999999995e-01 3.2897636005141834e-01 1.5276063168374596e+00 7.7479949354498654e+00 4 3 -1
6582 2194 3 4.0999999999999998e-01 1.2749945419783173e+00 3.9340179327093900e+00 7.6863726293505588e+00 3 -1 0
846 282 3 4.0999999999999998e-01 2.6812778339804297e+00 1.9997880263723398e+00 1.0198313061259203e+00 4 0 -3
6032 2011 4 -8.1999999999999995e-01 5.9107845088563193e+00 1.9521040822027453e+00 4.1329835523015168e+00 1 3 2
4718 1573 4 -8.1999999999999995e-01 2.1194007354456463e+00 6.9426819224739686e+00 3.5781294985946706e+00 2 -1 -3
2599 867 3 4.0999999999999998e-01 9.7843363242014352e+00 1.9568738255745732e+00 9.8695824434859034e+00 0 -3 3
5505 1835 3 4.0999999999999998e-01 4.0435198460333943e+00 8.6240114850308913e+00 8.9519628876586950e+00 -1 -1 -3
6461 2154 4 -8.1999999999999995e-01 5.7533957819415802e+00 4.1609478986016226e+00 5.6213965331266333e+00 -2 1 3
997 333 3 4.0999999999999998e-01 7.3851953490547757e+00 1.2224929638134427e+00 8.0523518713186579e+00 0 -1 -1
1824 608 3 4.0999999999999998e-01 4.7822535165184750e+00 6.4891774002832401e+00 1.8308558199725156e+00 1 2 -2
6933 2311 3 4.0999999999999998e-01 3.9509643818956941e+00 7.1546242337772004e-01 6.7217169340986489e+00 3 4 0
7297 2433 3 4.0999999999999998e-01 6.5617247484484240e+00 3.5291619535987562e+00 7.0326347312268949e+00 -2 0 1
5352 1784 3 4.0999999999999998e-01 9.8774758515019165e+00 7.8156628974734721e+00 8.0171908420426448e+00 5 5 1
5096 1699 4 -8.1999999999999995e-01 6.3957839054941186e+00 3.6805285258831169e+00 1.7526658097843826e+00 -2 3 2
4190 1397 4 -8.1999999999999995e-01 4.1311058191495142e+00 5.1848534973535170e+00 3.5790923810618307e+00 -2 1 -3
1822 608 3 4.0999999999999998e-01 5.4239074086760342e+00 6.4674840018986242e+00 3.3161614098234515e-01 1 2 -2
5102 1701 4 -8.1999999999999995e-01 4.2019932265733644e+00 9.1357887055278209e+00 7.2782465632510016e+00 0 -2 1
2605 869 3 4.0999999999999998e-01 4.3174901730808521e+00 1.8983093034663046e+00 9.4133805770108339e+00 1 -2 -5
4028 1343 4 -8.1999999999999995e-01 7.8542034699177394e+00 5.5461184473952194e+00 3.8566831992650612e+00 2 -2 3
6031 2011 3 4.0999999999999998e-01 5.1441242614216591e+00 1.4479271767470385e+00 3.6432003505108410e+00 1 3 2
272 91 4 -8.1999999999999995e-01 1.3448310078713037e+00 9.4559593626945624e+00 6.5342457354360590e+00 -1 0 1
4132 1378 3 4.0999999999999998e-01 2.0833663481185671e+00 3.1841318176450248e+00 5.9013100345710443e+00 2 -1 1
1583 528 4 -8.1999999999999995e-01 4.8479923603925608e+00 6.5325723485250338e+00 6.4200395105904775e+00 1 -4 4
5103 1701 3 4.0999999999999998e-01 4.7026703225051865e+00 9.8264472930345423e+00 6.7482904970319266e+00 0 -2 1
5351 1784 4 -8.1999999999999995e-01 8.9182372283646547e+00 7.6375152660884922e+00 8.2772706329051271e+00 5 5 1
271 91 3 4.0999999999999998e-01 2.2040331574447030e+00 9.2193267448044161e+00 7.0519803939307719e+00 -1 0 1
6581 2194 4 -8.1999999999999995e-01 2.1076261243405288e+00 4.4222573944149195e+00 7.2527358811922920e+00 3 -1 0
5504 1835 4 -8.1999999999999995e-01 3.5393755334475978e+00 8.2150327906303122e+00 9.7304633594704448e+00 -1 -1 -3
7105 2369 3 4.0999999999999998e-01 1.3601370324173310e+00 5.8739268325109109e+00 6.5282771605362928e+00 -4 1 4
5097 1699 3 4.0999999999999998e-01 5.9700453803587692e+00 4.5349518013821859e+00 1.9750633729895692e+00 -2 3 2
3706 1236 3 4.0999999999999998e-01 2.9008576338068370e+00 6.5225673546777863e-01 9.3383772073947444e+00 -5 -1 -2
3120 1040 3 4.0999999999999998e-01 6.9659507900456132e+00 7.9438120257247453e+00 1.2453258629803545e+00 -3 7 -1
273 91 3 4.0999999999999998e-01 7.8202872240895127e-01 8.6199272299570655e+00 6.4870240847584455e+00 -1 0 1
308 103 4 -8.1999999999999995e-01 9.2339434399664597e+00 3.3063235655620944e+00 3.8291020208353221e+00 -2 -2 5
601 201 3 4.0999999999999998e-01 7.5553207633465016e+00 8.2741217075508313e+00 5.5881124200812495e+00 0 -2 0
6544 2182 3 4.0999999999999998e-01 9.6209787399584279e+00 1.0529658810366151e+00 1.6063882242475711e+00 -3 -1 4
6545 2182 4 -8.1999999999999995e-01 8.7590144604573421e+00 1.5371650019040295e+00 1.7785316180433968e+00 -3 -1 4
887 296 4 -8.1999999999999995e-01 4.2860744753984088e+00 5.4608770141712606e+00 1.0143657339892750e+01 4 -1 3
7314 2438 3 4.0999999999999998e-01 7.2381806392857415e+00 9.6960847645650343e+00 3.8125449054115776e+00 0 0 0
6033 2011 3 4.0999999999999998e-01 6.5023381476132309e+00 1.2720102356416072e+00 4.5735238497919877e+00 1 3 2
4029 1343 3 4.0999999999999998e-01 8.1304376143968842e+00 6.0607532219486444e+00 2.9802462207451641e+00 2 -2 3
998 333 4 -8.1999999999999995e-01 7.1214696371523614e+00 1.7922185472760338e-01 8.0231648741007984e+00 0 -1 -1
4719 1573 3 4.0999999999999998e-01 1.9500804485431587e+00 7.8743697925119678e+00 3.2628857149082466e+00 2 -1 -3
1989 663 3 4.0999999999999998e-01 7.6333234231053906e+00 1.0183380271103413e+01 9.9072558596357627e+00 2 2 -1
4189 1397 3 4.0999999999999998e-01 3.4927346839210585e+00 5.9939435418020075e+00 3.6094848517129341e+00 -2 1 -3
6876 2292 3 4.0999999999999998e-01 3.6337664400082761e+00 3.9408942175533670e+00 2.0533628427222101e+00 2 3 2
5385 1795 3 4.0999999999999998e-01 5.7687395103747297e-01 1.0025657806414564e+01 2.5869308909499513e+00 -1 0 0
6931 2311 3 4.0999999999999998e-01 2.6191679686939451e+00 1.3733815689357036e+00 5.9179341593126571e+00 3 4 0
5731 1911 3 4.0999999999999998e-01 8.6409100831708763e+00 7.7243510406992852e+00 1.7132967240349295e+00 3 -1 -1
6580 2194 3 4.0999999999999998e-01 2.9853662163696333e+00 4.2565458353517842e+00 7.7564111377577429e+00 3 -1 0
5732 1911 4 -8.1999999999999995e-01 9.2365905340168979e+00 6.8475238394417293e+00 1.8250752544852553e+00 3 -1 -1
2606 869 4 -8.1999999999999995e-01 4.4137335266740774e+00 2.8113375124915496e+00 8.9752315918162449e+00 1 -2 -5
6932 2311 4 -8.1999999999999995e-01 2.9429124562329796e+00 5.9958439587470447e-01 6.4997511361888858e+00 3 4 0
844 282 3 4.0999999999999998e-01 2.9097330913492527e+00 4.5986761192515402e-01 1.3538999414630606e+00 4 0 -3
7299 2433 3 4.0999999999999998e-01 7.2170220444846329e+00 4.0097081512053583e+00 8.3904599254574279e+00 -2 0 1
5101 1701 3 4.0999999999999998e-01 4.2396615086785099e+00 8.3081900535550375e+00 6.7380007190559885e+00 0 -2 1
5869 1957 3 4.0999999999999998e-01 4.7076326224858034e-01 7.3384360670157711e-01 7.1185921882809424e+00 4 3 -1
4027 1343 3 4.0999999999999998e-01 7.6728718301710170e+00 6.2074990882424812e+00 4.6104875037293711e+00 2 -2 3
6804 2268 3 4.0999999999999998e-01 5.9539071286377316e+00 5.9854026377736957e+00 9.7556751397032944e+00 -2 -3 -2
352 118 3 4.0999999999999998e-01 8.5945983302732962e+00 3.3568478861169351e+00 7.3015609747512089e-01 3 -1 -2
5733 1911 3 4.0999999999999998e-01 1.0204981105798195e+01 7.0516648391685814e+00 1.7111452207607911e+00 3 -1 -1
6802 2268 3 4.0999999999999998e-01 7.2364080364810510e+00 6.3369882750445727e+00 8.8062162205377206e+00 -2 -3 -2
3707 1236 4 -8.1999999999999995e-01 2.0190510246480007e+00 8.8173425071055622e-01 9.8616238154192875e+00 -5 -1 -2
5931 1977 3 4.0999999999999998e-01 5.9109070049472678e-01 7.8962662008987010e+00 1.5761795381966452e+00 -2 0 3
4134 1378 3 4.0999999999999998e-01 1.7417595561219184e+00 3.0329039904897792e+00 4.3601309369030803e+00 2 -1 1
3708 1236 3 4.0999999999999998e-01 1.3446263034897012e+00 1.1173381118294023e+00 9.0517402161990663e+00 -5 -1 -2
6546 2182 3 4.0999999999999998e-01 8.0351493974015149e+00 8.0064053960136616e-01 1.9150675178424768e+00 -3 -1 4
845 282 4 -8.1999999999999995e-01 2.3292573464654223e+00 1.0312491408189515e+00 7.3765179698935912e-01 4 0 -3
886 296 3 4.0999999999999998e-01 4.3568205312145940e+00 4.4449449515414976e+00 9.8096850891432670e+00 4 -1 3
2163 721 3 4.0999999999999998e-01 5.7660519546055253e+00 3.6367243694476770e-01 8.6760171913705637e+00 -1 -1 -3
5383 1795 3 4.0999999999999998e-01 1.9249091948585846e+00 9.5961713217657021e+00 1.9108993365260327e+00 -1 0 0
2601 867 3 4.0999999999999998e-01 9.8580175954897928e+00 1.1913892133218695e+00 8.3587942947853371e+00 0 -3 3
3118 1040 3 4.0999999999999998e-01 6.9196389595956038e+00 9.5219476129894307e+00 1.6136586387155663e+00 -3 7 -1
2600 867 4 -8.1999999999999995e-01 9.9210357315394475e+00 2.0965693253317235e+00 8.8713228767026724e+00 0 -3 3
1988 663 4 -8.1999999999999995e-01 7.7557789454586690e+00 9.1736026475654580e+00 1.0147163052417605e+01 2 2 -1
7106 2369 4 -8.1999999999999995e-01 7.4629893188229002e-01 6.5804879016589988e+00 6.0217428184269997e+00 -4 1 4
5503 1835 3 4.0999999999999998e-01 3.7533068420827602e+00 7.2485612695441937e+00 9.7187006676336889e+00 -1 -1 -3
4717 1573 3 4.0999999999999998e-01 1.4595616770014295e+00 6.7495962810549059e+00 4.3558929854564070e+00 2 -1 -3
6875 2292 4 -8.1999999999999995e-01 3.0876800488895011e+00 3.5672774928056703e+00 1.3333368538744526e+00 2 3 2
6421 2141 3 4.0999999999999998e-01 1.0480501562079677e+01 2.5443796781953627e+00 4.9151488783772299e+00 2 3 -1
603 201 3 4.0999999999999998e-01 8.3659628882817252e+00 7.2473485024247681e+00 6.7098729424924883e+00 0 -2 0
307 103 3 4.0999999999999998e-01 8.7365388941907920e+00 4.1782222298424996e+00 3.6618304819950356e+00 -2 -2 5
3119 1040 4 -8.1999999999999995e-01 7.5876906373379667e+00 8.7899794009464980e+00 1.4542489263305227e+00 -3 7 -1
7313 2438 4 -8.1999999999999995e-01 7.7779648788460074e+00 9.6957578664797186e+00 4.7199536795640382e+00 0 0 0
4191 1397 3 4.0999999999999998e-01 4.4962900146192357e+00 5.1672956271212200e+00 4.5307640071031221e+00 -2 1 -3
309 103 3 4.0999999999999998e-01 8.9622841528367427e+00 2.5571815072815611e+00 3.1268206912663832e+00 -2 -2 5
6874 2292 3 4.0999999999999998e-01 2.1483225599925571e+00 3.7715862281122412e+00 1.6696942287794678e+00 2 3 2
1584 528 3 4.0999999999999998e-01 5.0647907608114551e+00 5.5335163534325922e+00 6.4957398760307283e+00 1 -4 4
7298 2433 4 -8.1999999999999995e-01 6.7038384954322652e+00 3.2506625733767480e+00 7.9947909519682065e+00 -2 0 1
1823 608 4 -8.1999999999999995e-01 5.6225086153262032e+00 6.6955495714832551e+00 1.2761315927057855e+00 1 2 -2
2607 869 3 4.0999999999999998e-01 5.3991308739770263e+00 2.9375743279834929e+00 8.6908958389094568e+00 1 -2 -5
602 201 4 -8.1999999999999995e-01 7.6898161712467319e+00 7.2946283444851305e+00 5.8986285490654389e+00 0 -2 0
6462 2154 3 4.0999999999999998e-01 5.3608996426701427e+00 3.3474540815616156e+00 5.1387755835935076e+00 -2 1 3
5350 1784 3 4.0999999999999998e-01 8.4857374615945211e+00 8.2221206809392040e+00 9.0450403806036022e+00 5 5 1
4133 1378 4 -8.1999999999999995e-01 2.1543132520991768e+00 2.5428408081934157e+00 5.1296129947595119e+00 2 -1 1
1582 528 3 4.0999999999999998e-01 5.7754449080264623e+00 7.0602507682634217e+00 6.2344640763918715e+00 1 -4 4
354 118 3 4.0999999999999998e-01 9.1062014399717217e+00 4.9698034993314781e+00 7.6630779135894189e-01 3 -1 -2
4887 1629 3 4.0999999999999998e-01 4.3700441801971673e-01 4.3396085333943386e+00 3.5871446718342979e+00 4 0 -3
4885 1629 3 4.0999999999999998e-01 1.4976149049876568e+00 5.4682400554577786e+00 2.8571542251253090e+00 4 0 -3
5095 1699 3 4.0999999999999998e-01 6.2109851788739636e+00 3.0611104250536836e+00 2.5562276251057594e+00 -2 3 2
5384 1795 4 -8.1999999999999995e-01 1.0735759331454864e+00 9.1818069851187403e+00 2.3553915288150340e+00 -1 0 0
6803 2268 4 -8.1999999999999995e-01 6.9633903936734791e+00 5.7314988614653304e+00 9.6249067967565303e+00 -2 -3 -2
2842 948 3 4.0999999999999998e-01 1.0483640982895590e+01 4.7900197915822611e+00 1.0533939274375347e+01 -1 -4 3
7312 2438 3 4.0999999999999998e-01 8.5778807964407626e+00 1.0355249108182530e+01 4.6572616905061954e+00 0 0 0
5862 1954 3 4.0999999999999998e-01 1.0571255645707039e+01 4.6217187453311279e+00 3.9647158639772493e+00 4 3 -1
5941 1981 3 4.0999999999999998e-01 9.8972213916575438e+00 2.2186632648599136e-01 6.0216372207530569e+00 -1 -1 0
353 118 4 -8.1999999999999995e-01 9.0708262984176553e+00 4.1204812631364911e+00 1.6434186296851294e-01 3 -1 -2
1060 354 3 4.0999999999999998e-01 1.1773714972309421e+00 9.0034446771601786e+00 1.5367307592874544e+01 1 -2 3
1640 547 4 -8.1999999999999995e-01 9.7120471045212255e+00 1.9887085176031398e+00 1.1470926076062508e+01 -1 -3 2
2951 984 4 -8.1999999999999995e-01 7.6620411056222384e+00 3.4531138981292719e-01 1.7406084878607434e+01 1 4 2
4214 1405 4 -8.1999999999999995e-01 1.1598414518946063e+00 3.6741909885909054e+00 1.0733654495536577e+01 1 0 0
6824 2275 4 -8.1999999999999995e-01 5.9530549194206772e+00 6.3033499618975561e+00 2.0871847014692456e+01 1 1 -2
5190 1730 3 4.0999999999999998e-01 3.9330103344435225e+00 1.7027233027477384e+00 1.6905390639153929e+01 6 6 1
2952 984 3 4.0999999999999998e-01 7.3621799212106858e+00 3.3688742417192946e-01 1.6435501930156150e+01 1 4 2
5658 1886 3 4.0999999999999998e-01 1.9830878811509511e+00 5.6420929537026767e+00 1.9129449116054271e+01 1 -1 3
1178 393 4 -8.1999999999999995e-01 7.4175833511687452e+00 5.1538695309695699e+00 1.7524922421872521e+01 -2 -3 -3
2317 773 3 4.0999999999999998e-01 8.4285556000634188e+00 8.0110253210545377e+00 1.1358539430766413e+01 -1 1 -1
1180 394 3 4.0999999999999998e-01 9.3373121142359174e+00 3.4711248319226868e+00 1.5056847319927588e+01 -3 -4 -2
2820 940 3 4.0999999999999998e-01 8.2413277214642768e+00 4.7454473858433603e+00 1.0689326122672897e+01 2 1 4
6788 2263 4 -8.1999999999999995e-01 3.0709313498742463e+00 5.1993638603073133e+00 1.2463514651235512e+01 -1 1 0
5288 1763 4 -8.1999999999999995e-01 4.0733715353070252e+00 3.1085707467362411e+00 1.8808034122897304e+01 3 2 1
6465 2155 3 4.0999999999999998e-01 1.1127583821864466e+00 1.6533714710130387e+00 1.4287771987733256e+01 0 1 -1
1179 393 3 4.0999999999999998e-01 7.7506327116644318e+00 4.3368613629435542e+00 1.6973875370109280e+01 -2 -3 -3
455 152 4 -8.1999999999999995e-01 3.9860018900911651e+00 7.9530070473898995e+00 1.7177260546776761e+01 0 -1 2
1177 393 3 4.0999999999999998e-01 7.8318464997222739e+00 4.9536442641270293e+00 1.8450028588811538e+01 -2 -3 -3
2500 834 3 4.0999999999999998e-01 1.4151438698297940e+00 7.4684191157821793e+00 1.3102993455361984e+01 0 -2 1
1821 607 3 4.0999999999999998e-01 3.4378316323123399e+00 8.9401932819562049e+00 1.1485479956748462e+01 1 -3 1
2319 773 3 4.0999999999999998e-01 9.2022066713145581e+00 8.6338076598656617e+00 1.2622320889312157e+01 -1 1 -1
952 318 3 4.0999999999999998e-01 9.0911633787758173e-01 8.5736900273324856e+00 2.0164953569816106e+01 2 0 3
1551 517 3 4.0999999999999998e-01 6.8749268870320464e+00 2.3507224824425079e+00 1.4910293586166105e+01 2 2 1
3994 1332 3 4.0999999999999998e-01 6.0554054484003963e+00 5.8967078452192059e+00 1.3600170242610517e+01 1 -3 3
1181 394 4 -8.1999999999999995e-01 8.3024094119552583e+00 3.5853116315102005e+00 1.5012473562960299e+01 -3 -4 -2
1550 517 4 -8.1999999999999995e-01 6.0505474944150528e+00 1.7797561899637357e+00 1.4614395165787776e+01 2 2 1
1820 607 4 -8.1999999999999995e-01 3.6975446914414989e+00 9.3651856037689374e+00 1.2427928341309352e+01 1 -3 1
511 171 3 4.0999999999999998e-01 4.3273592745530154e+00 4.6144473342418832e+00 1.4988769486776579e+01 2 3 -5
322 108 3 4.0999999999999998e-01 8.0743131689240215e+00 7.0994777223147061e+00 1.7428487823323017e+01 0 4 3
5234 1745 4 -8.1999999999999995e-01 4.9727395049483656e+00 5.5090127423535993e+00 1.8272667864854494e+01 4 2 2
1819 607 3 4.0999999999999998e-01 3.2921236855358980e+00 8.6894139606097696e+00 1.3081990021151462e+01 1 -3 1
5592 1864 3 4.0999999999999998e-01 7.3799921619732505e+00 8.5466371085558759e+00 1.5810125752317667e+01 -4 1 1
5289 1763 3 4.0999999999999998e-01 4.5600387737396577e+00 4.0169863726514858e+00 1.8563072089345670e+01 3 2 1
2408 803 4 -8.1999999999999995e-01 1.0527007185060620e+01 6.0512099121872271e+00 1.3617284269441752e+01 1 0 1
4276 1426 3 4.0999999999999998e-01 1.0549319113456251e+01 2.5455013858370719e+00 2.0252707463370687e+01 2 -2 -2
888 296 3 4.0999999999999998e-01 3.8319811551722966e+00 5.3535417396646068e+00 1.1087217339433963e+01 4 -1 3
2502 834 3 4.0999999999999998e-01 1.9390398127274429e+00 7.7147823316330983e+00 1.4605554287935698e+01 0 -2 1
1061 354 4 -8.1999999999999995e-01 1.5385410561070316e+00 8.4392831545829115e+00 1.6132845416189447e+01 1 -2 3
5590 1864 3 4.0999999999999998e-01 6.5443681405949201e+00 8.9795852196066317e+00 1.4394758209358296e+01 -4 1 1
5233 1745 3 4.0999999999999998e-01 5.7207366296830173e+00 5.1917366977804207e+00 1.7650885704688115e+01 4 2 2
5474 1825 4 -8.1999999999999995e-01 3.6051626053714381e-01 9.8896450153756206e+00 1.4128774262732195e+01 2 4 4
4370 1457 4 -8.1999999999999995e-01 1.6085540086991277e+00 4.9509291255511716e+00 1.5594591641736706e+01 0 5 1
6789 2263 3 4.0999999999999998e-01 3.0393803766204410e+00 4.7252664155319515e+00 1.3411843361730384e+01 -1 1 0
6825 2275 3 4.0999999999999998e-01 5.6706738313702187e+00 5.9976315069340744e+00 1.9961197635183996e+01 1 1 -2
1549 517 3 4.0999999999999998e-01 6.2251093676734532e+00 7.7863243511541957e-01 1.4371430854816161e+01 2 2 1
1954 652 3 4.0999999999999998e-01 6.3870715933410320e+00 1.0023993706441290e+01 1.8538872696454209e+01 -1 -1 0
5657 1886 4 -8.1999999999999995e-01 2.0913267620182627e+00 6.6500632709282295e+00 1.9343078724333999e+01 1 -1 3
513 171 3 4.0999999999999998e-01 4.6662673191316726e+00 2.9957335530295865e+00 1.4525527424409848e+01 2 3 -5
4498 1500 3 4.0999999999999998e-01 9.5800658635304927e+00 9.3442304849210203e+00 1.8856456757111470e+01 -2 -3 0
4371 1457 3 4.0999999999999998e-01 1.6163367299252474e+00 5.1442366323135937e+00 1.6594573769201862e+01 0 5 1
1062 354 3 4.0999999999999998e-01 6.6795759363413876e-01 8.2526179398407677e+00 1.6539489889530760e+01 1 -2 3
5475 1825 3 4.0999999999999998e-01 6.4709236766435596e-01 1.0048306626573686e+01 1.3182469078297746e+01 2 4 4
6731 2244 4 -8.1999999999999995e-01 4.6169887570616321e+00 6.2144150806047787e+00 1.5062021929682901e+01 -3 6 5
2318 773 4 -8.1999999999999995e-01 8.8576398150125435e+00 7.7827083178396625e+00 1.2278862283439418e+01 -1 1 -1
5188 1730 3 4.0999999999999998e-01 4.8574830070015240e+00 1.1517903300858554e+00 1.5744755014868826e+01 6 6 1
2196 732 3 4.0999999999999998e-01 1.0112369112149016e+00 3.5805852510934435e+00 1.7987344829808876e+01 2 3 -2
3731 1244 4 -8.1999999999999995e-01 6.3276332162962374e+00 1.0147278516361952e+01 1.2928341152481931e+01 -2 1 3
456 152 3 4.0999999999999998e-01 4.8128928932545874e+00 8.3671491796173036e+00 1.6776327551696468e+01 0 -1 2
5287 1763 3 4.0999999999999998e-01 4.4694121664121367e+00 2.8112089438807839e+00 1.9736698681661014e+01 3 2 1
2818 940 3 4.0999999999999998e-01 8.5946560348976124e+00 5.0555430731100808e+00 1.2294283004462072e+01 2 1 4
1691 564 4 -8.1999999999999995e-01 9.8699714118479012e+00 1.5445501127056604e+00 1.8481135618480486e+01 2 2 0
2195 732 4 -8.1999999999999995e-01 1.7875001834048478e+00 4.2561629687925242e+00 1.8260403779198739e+01 2 3 -2
2922 974 3 4.0999999999999998e-01 9.5035477094772816e+00 1.0388943394634968e+01 1.4645422319835999e+01 -1 -2 0
2501 834 4 -8.1999999999999995e-01 2.3028557528481821e+00 7.5161002782961921e+00 1.3625373208640530e+01 0 -2 1
954 318 3 4.0999999999999998e-01 1.5323383885470931e+00 1.0198321673982608e+01 2.0344712733009040e+01 2 0 3
1639 547 3 4.0999999999999998e-01 9.2256166785097360e+00 2.8479096505367707e+00 1.1571919745191790e+01 -1 -3 2
1240 414 3 4.0999999999999998e-01 5.7566705049258289e+00 9.6634478682031126e+00 2.0694812482895198e+01 -5 2 -1
6787 2263 3 4.0999999999999998e-01 2.7607920950101761e+00 6.1561227813499269e+00 1.2624578741073881e+01 -1 1 0
2920 974 3 4.0999999999999998e-01 1.0377365365658513e+01 9.0313577799449369e+00 1.4827034374542180e+01 -1 -2 0
5656 1886 3 4.0999999999999998e-01 2.8270716252847130e+00 7.1047970467268255e+00 1.8705359754007432e+01 1 -1 3
3732 1244 3 4.0999999999999998e-01 5.3206057291218327e+00 9.8875667865964054e+00 1.2713975662290514e+01 -2 1 3
953 318 4 -8.1999999999999995e-01 7.9293201271418778e-01 9.4888029943368402e+00 2.0587075417484961e+01 2 0 3
1242 414 3 4.0999999999999998e-01 5.8415196982298463e+00 8.1168834238230172e+00 2.0100070428594304e+01 -5 2 -1
6732 2244 3 4.0999999999999998e-01 4.8328842409981307e+00 6.9451317318074972e+00 1.5804367360806095e+01 -3 6 5
2921 974 4 -8.1999999999999995e-01 1.0220040939323436e+01 9.7679546084580284e+00 1.4117954516002897e+01 -1 -2 0
6463 2155 3 4.0999999999999998e-01 2.6680665869715088e+00 2.3586608458257881e+00 1.4594873097188223e+01 0 1 -1
5235 1745 3 4.0999999999999998e-01 4.6854498715330877e+00 6.4387704150518248e+00 1.7904612659983851e+01 4 2 2
1692 564 3 4.0999999999999998e-01 9.0378021551054104e+00 1.0732409170215953e+00 1.8047214520316206e+01 2 2 0
5591 1864 4 -8.1999999999999995e-01 6.4670950772791551e+00 8.7047334360581772e+00 1.5358075539936666e+01 -4 1 1
339 113 3 4.0999999999999998e-01 8.2498273594270088e+00 4.7918185600319657e-01 1.3352017988242308e+01 -2 3 0
3498 1166 3 4.0999999999999998e-01 4.2708306900247583e+00 1.0497418490907517e+01 1.9336659774527714e+01 3 -1 -1
5189 1730 4 -8.1999999999999995e-01 4.2901261322201858e+00 8.7736260975528590e-01 1.6517646806134287e+01 6 6 1
3996 1332 3 4.0999999999999998e-01 7.4748928529933485e+00 6.5069155986923359e+00 1.2956948290628150e+01 1 -3 3
6894 2298 3 4.0999999999999998e-01 2.6766084397837449e+00 6.8777330147529314e+00 2.0986263494243165e+01 1 0 1
1182 394 3 4.0999999999999998e-01 8.0115009156943877e+00 4.1219332514116500e+00 1.4256004614698801e+01 -3 -4 -2
512 171 4 -8.1999999999999995e-01 3.9197013570142283e+00 3.6593757668645779e+00 1.4845240880940310e+01 2 3 -5
4369 1457 3 4.0999999999999998e-01 2.5484093344030212e+00 4.5797505619343140e+00 1.5429462756101914e+01 0 5 1
3322 1108 3 4.0999999999999998e-01 9.2665671185489789e+00 5.3121238053334494e+00 2.0678838274584937e+01 1 2 0
6417 2139 3 4.0999999999999998e-01 2.1721352063757826e+00 5.4960983622867676e-01 1.2953259837631137e+01 3 -2 3
2819 940 4 -8.1999999999999995e-01 8.8610146185622032e+00 4.5191043538177178e+00 1.1464628435765837e+01 2 1 4
2407 803 3 4.0999999999999998e-01 9.9290995797126644e+00 6.7934588114988061e+00 1.3181964796932277e+01 1 0 1
324 108 3 4.0999999999999998e-01 9.4072595338293077e+00 7.6861983597864878e+00 1.6549200021266486e+01 0 4 3
323 108 4 -8.1999999999999995e-01 8.5757865199677195e+00 7.9288785682436176e+00 1.7059967119194358e+01 0 4 3
6730 2244 3 4.0999999999999998e-01 3.9795935906404818e+00 6.7155492012640128e+00 1.4457750611545741e+01 -3 6 5
3995 1332 4 -8.1999999999999995e-01 6.9639774884098848e+00 5.6248324686077185e+00 1.3217334753849190e+01 1 -3 3
1241 414 4 -8.1999999999999995e-01 5.6876687073260079e+00 9.0630012966311764e+00 1.9834866156607045e+01 -5 2 -1
4499 1500 4 -8.1999999999999995e-01 9.9589907221320182e+00 9.7020430805441009e+00 1.9691617640792504e+01 -2 -3 0
3324 1108 3 4.0999999999999998e-01 8.2490775949953719e+00 4.0421492924033986e+00 2.0960042245472909e+01 1 2 0
4213 1405 3 4.0999999999999998e-01 1.7163021672943697e+00 4.3403286517691084e+00 1.1266158903783646e+01 1 0 0
454 152 3 4.0999999999999998e-01 3.0851541665942652e+00 8.4363154134043530e+00 1.6951345573556360e+01 0 -1 2
2194 732 3 4.0999999999999998e-01 2.6505352500829673e+00 3.6440479384352353e+00 1.8425764542544432e+01 2 3 -2
6464 2155 4 -8.1999999999999995e-01 2.1267990010644100e+00 1.5793111223687388e+00 1.4126393338877868e+01 0 1 -1
2806 936 3 4.0999999999999998e-01 3.4053130712416035e-01 6.7291648181575008e+00 1.9864415088644467e+01 0 -2 -2
1641 547 3 4.0999999999999998e-01 1.0160554534083289e+01 1.7796445509354977e+00 1.2354038408182694e+01 -1 -3 2
3323 1108 4 -8.1999999999999995e-01 8.3312255258200807e+00 4.9654226568038853e+00 2.0505048692893595e+01 1 2 0
4500 1500 3 4.0999999999999998e-01 9.4886332645030240e+00 1.0534692946271100e+01 1.9939287169274035e+01 -2 -3 0
4215 1405 3 4.0999999999999998e-01 1.6346047313718222e+00 2.7470002923556240e+00 1.0605642744560770e+01 1 0 0
1987 663 3 4.0999999999999998e-01 6.9275916995948803e+00 8.8212075725781638e+00 1.0605827181994206e+01 2 2 -1
3166 1056 3 4.0999999999999998e-01 9.9744384660230594e+00 3.3845048483734694e+00 2.5072824758624616e+01 -4 0 1
3942 1314 3 4.0999999999999998e-01 6.1123939947905930e+00 5.3816617649941092e+00 2.7371448796603978e+01 0 -2 -2
3325 1109 3 4.0999999999999998e-01 8.5783990658566822e-01 8.3877953808890577e+00 2.7165331282154057e+01 -3 0 2
5759 1920 4 -8.1999999999999995e-01 9.5961664738871431e+00 5.1813153538851990e+00 2.4305293190189836e+01 0 -1 6
4777 1593 3 4.0999999999999998e-01 1.8774325156483214e+00 3.7552338519674691e+00 3.1317722648179490e+01 0 0 2
2290 764 3 4.0999999999999998e-01 4.5226455412025892e+00 1.0062367503236858e+01 2.4647707626704914e+01 -1 -2 0
1389 463 3 4.0999999999999998e-01 8.6651150187803587e+00 1.4576087226716732e+00 2.8231855385384318e+01 -5 4 0
6757 2253 3 4.0999999999999998e-01 3.2631648215758084e+00 9.6046669634287287e+00 2.9749941605733792e+01 2 2 -2
5889 1963 3 4.0999999999999998e-01 6.4074723585688993e+00 2.4251523884540278e+00 2.4513899134349202e+01 -2 1 -2
1503 501 3 4.0999999999999998e-01 4.9472111158926895e+00 2.1739221334247998e+00 3.0165293967795890e+01 -2 0 -3
7223 2408 4 -8.1999999999999995e-01 8.5418016649063810e-01 4.5018356940547450e+00 2.4421143640358682e+01 -1 3 0
2192 731 4 -8.1999999999999995e-01 1.4429999536215816e+00 1.5713115910086632e+00 2.4233872869803150e+01 5 -1 -3
1149 383 3 4.0999999999999998e-01 7.6301771941607486e+00 6.6881946815441369e+00 2.6817486116300266e+01 -1 0 3
6892 2298 3 4.0999999999999998e-01 4.3519812570936987e+00 7.0299109893083056e+00 2.1242623970130321e+01 1 0 1
6759 2253 3 4.0999999999999998e-01 4.7287848698304327e+00 9.9016302203435060e+00 3.0674213961328572e+01 2 2 -2
1920 640 3 4.0999999999999998e-01 1.0753289533570156e+00 1.0198408477096338e+01 2.2532763554451421e+01 2 -2 -4
4501 1501 3 4.0999999999999998e-01 2.8745500398577883e+00 6.8738494394790450e+00 2.8987369913563722e+01 -1 2 0
3379 1127 3 4.0999999999999998e-01 3.9365587373087152e+00 7.2229057915645409e+00 3.0421225717827411e+01 1 -4 2
3374 1125 4 -8.1999999999999995e-01 8.2914498317944147e+00 4.7544407870462306e+00 2.9954111720992309e+01 -1 -1 -4
1427 476 4 -8.1999999999999995e-01 2.0333636755293680e+00 6.7701649856121753e+00 3.0719948328846744e+01 4 1 -2
3214 1072 3 4.0999999999999998e-01 1.3293949165209158e+00 3.7021443931439619e+00 2.7382001941369673e+01 -1 1 1
5760 1920 3 4.0999999999999998e-01 9.3036779171331361e+00 5.9960902316092506e+00 2.3745313474857117e+01 0 -1 6
3940 1314 3 4.0999999999999998e-01 5.0112347347662380e+00 6.0683973665752520e+00 2.8247520332637780e+01 0 -2 -2
6402 2134 3 4.0999999999999998e-01 6.5761989158998100e+00 1.0163591120010254e+01 2.6089662118009567e+01 -5 3 -1
6400 2134 3 4.0999999999999998e-01 6.6126570410760532e+00 9.3575575168566942e+00 2.4553752251691797e+01 -5 3 -1
69 23 3 4.0999999999999998e-01 6.9994457353159918e+00 8.8832803159009384e+00 2.7473186480899489e+01 2 -3 1
3777 1259 3 4.0999999999999998e-01 5.3086694804725427e+00 7.7182788162537195e+00 2.3073791061324620e+01 5 -2 -1
5945 1982 4 -8.1999999999999995e-01 7.5478402235915407e+00 7.6106539050274318e+00 3.0196480807402416e+01 -2 -3 -2
2191 731 3 4.0999999999999998e-01 2.1549851056560207e+00 2.1908740629729899e+00 2.3882400026139859e+01 5 -1 -3
67 23 3 4.0999999999999998e-01 5.6297194993786759e+00 9.3071348895644448e+00 2.8310135549299297e+01 2 -3 1
1502 501 4 -8.1999999999999995e-01 5.7818879313152776e+00 2.8368665403591597e+00 3.0272212473956355e+01 -2 0 -3
378 126 3 4.0999999999999998e-01 8.2774942682702459e+00 4.9750181198754104e+00 2.5374327136529363e+01 -1 -6 -1
5258 1753 4 -8.1999999999999995e-01 3.7712086078915834e+00 1.6768882144961146e+00 2.6685369658708154e+01 1 5 1
4747 1583 3 4.0999999999999998e-01 2.8719498653206976e+00 3.5498675374288200e+00 2.9424655511521660e+01 1 0 4
4779 1593 3 4.0999999999999998e-01 2.9373367017976815e+00 5.0255590780304207e+00 3.1285669335449452e+01 0 0 2
2193 731 3 4.0999999999999998e-01 1.6420675112343432e+00 1.5445787438077780e+00 2.5202492862445791e+01 5 -1 -3
3941 1314 4 -8.1999999999999995e-01 5.5899771765760766e+00 5.2120699254933314e+00 2.8210050318205393e+01 0 -2 -2
1148 383 4 -8.1999999999999995e-01 8.0121492391366012e+00 7.4609748658898924e+00 2.7326575819270513e+01 -1 0 3
1891 631 3 4.0999999999999998e-01 2.8147133630057639e+00 1.1300497343139784e+00 3.0393707165802695e+01 2 0 0
4395 1465 3 4.0999999999999998e-01 6.4469632748624894e+00 2.6466272302820864e+00 2.1553201620553011e+01 -1 1 -1
6583 2195 3 4.0999999999999998e-01 8.2513748826452282e+00 1.8912696711433272e+00 2.2534538557023321e+01 -1 -4 3
4394 1465 4 -8.1999999999999995e-01 5.4844932739001360e+00 2.3230686522418900e+00 2.1438421692033536e+01 -1 1 -1
2930 977 4 -8.1999999999999995e-01 9.0207044654683148e+00 7.4226932006787250e+00 2.2850234781317855e+01 1 -3 3
6893 2298 4 -8.1999999999999995e-01 3.3914422623780855e+00 7.1043490366845159e+00 2.1628750758010341e+01 1 0 1
4749 1583 3 4.0999999999999998e-01 3.6553011265252149e+00 4.3931152968060578e+00 2.8254755067514736e+01 1 0 4
4251 1417 3 4.0999999999999998e-01 6.1765169079987292e-01 9.7337041556273707e-01 3.0580272695528375e+01 4 2 -2
5680 1894 3 4.0999999999999998e-01 4.1796604518710785e+00 2.8907831017245749e+00 2.2476166499955156e+01 2 0 0
2929 977 3 4.0999999999999998e-01 9.7180087912722648e+00 8.0965411214830478e+00 2.3188415270073069e+01 1 -3 3
4977 1659 3 4.0999999999999998e-01 9.0972873595687123e+00 1.2816491707566402e+00 3.0648116971109005e+01 1 4 -3