LAMMPS data file via write_data, version 5 Jun 2019, timestep = 23590000

7349 atoms
5 atom types
4899 bonds
2 bond types
2451 angles
2 angle types
1 impropers
1 improper types

1.5519297081455363e-01 4.1845807029189409e+01 xlo xhi
1.5469297081455124e-01 4.1845307029189406e+01 ylo yhi
1.5469297081455124e-01 4.1845307029189406e+01 zlo zhi

#Masses
#
#1 12.01
#2 40.08
#3 1.01
#4 16
#5 16
#
#Bond Coeffs # harmonic
#
#1 20.4246 1.3042
#2 22.965 1.012

Atoms # full

902 301 4 -8.1999999999999995e-01 7.7383055397153493e+00 7.7313903272016287e+00 6.8754263639850528e+00 1 -1 0
6054 2018 3 4.0999999999999998e-01 3.3876339381684444e+00 9.2187248811748788e+00 1.7168844698576995e+00 0 -3 1
2756 919 4 -8.1999999999999995e-01 3.4989597904372638e+00 7.3497425659295619e+00 5.7293984653287353e+00 1 2 2
4890 1630 3 4.0999999999999998e-01 2.7473807662419882e+00 3.5742151890478757e+00 4.4418335941913689e+00 4 8 -1
6818 2273 4 -8.1999999999999995e-01 5.2308171392276250e+00 7.5294029889262468e+00 7.7916683465388266e+00 1 3 2
4889 1630 4 -8.1999999999999995e-01 3.5184795608091615e+00 3.0918170077171769e+00 4.0415705383051073e+00 4 8 -1
6817 2273 3 4.0999999999999998e-01 4.6687732205154271e+00 7.6048460428688012e+00 6.8981156547760332e+00 1 3 2
3101 1034 4 -8.1999999999999995e-01 2.3267779078360786e+00 1.3423267395595915e+00 6.6667331621735242e+00 2 3 5
6052 2018 3 4.0999999999999998e-01 4.3755684335387812e+00 7.9787219357453276e+00 1.5564249094483067e+00 0 -3 1
3302 1101 4 -8.1999999999999995e-01 7.0100187326138181e+00 9.9555351003951458e+00 2.2411331083387123e+00 3 -3 2
6179 2060 4 -8.1999999999999995e-01 3.8816853999313858e+00 6.3208477329116342e+00 4.5028053629925102e-01 1 1 4
5001 1667 3 4.0999999999999998e-01 5.2697622051562103e+00 5.4293143689638397e+00 2.8609854298253823e+00 0 -2 0
3543 1181 3 4.0999999999999998e-01 9.9425193718877658e+00 1.5412311299278669e+00 1.1192362403842739e+00 5 1 3
4888 1630 3 4.0999999999999998e-01 4.1521300381212027e+00 3.7084389603585657e+00 3.4981416330642832e+00 4 8 -1
4035 1345 3 4.0999999999999998e-01 1.1086589922019474e+00 9.9205179225462459e+00 4.3605200092444525e+00 -9 -3 -5
4116 1372 3 4.0999999999999998e-01 1.3146167639160706e+00 6.1934835904179542e+00 2.5603104719196281e+00 2 -4 3
5722 1908 3 4.0999999999999998e-01 1.1576356872601385e+00 3.9687579266613420e+00 1.0293561024249984e+01 0 0 -1
6124 2042 3 4.0999999999999998e-01 2.9444592606756332e+00 5.0590280817973436e+00 8.4893433971372101e+00 0 1 -1
633 211 3 4.0999999999999998e-01 1.0878977782197254e+00 3.7561379753461370e+00 2.1621872947735086e+00 0 4 -5
4115 1372 4 -8.1999999999999995e-01 2.1660330617214512e+00 5.5737736985510429e+00 2.6251471951824712e+00 2 -4 3
236 79 4 -8.1999999999999995e-01 7.6312944397897242e-01 7.4743817850996228e+00 7.8237152648135178e+00 1 2 4
3822 1274 3 4.0999999999999998e-01 3.7778093985653505e+00 6.1724934002324627e-01 1.0162336918841257e+01 4 1 -1
2246 749 4 -8.1999999999999995e-01 7.4642864919017473e+00 2.3790685080925926e+00 6.5368742667338893e+00 0 -2 1
5773 1925 3 4.0999999999999998e-01 3.9068062295335282e+00 2.8748965320356326e+00 9.2973824167893859e+00 -2 1 3
903 301 3 4.0999999999999998e-01 7.9545621589645554e+00 8.5043869376692154e+00 7.4156980695798360e+00 1 -1 0
2247 749 3 4.0999999999999998e-01 7.5610032146221062e+00 2.5537937736940752e+00 5.5626807441663120e+00 0 -2 1
6053 2018 4 -8.1999999999999995e-01 4.3553228348091979e+00 8.9729743514352300e+00 1.6238261327786119e+00 0 -3 1
514 172 3 4.0999999999999998e-01 9.7909741463747046e+00 3.5659485482692075e+00 2.7404449617636084e+00 -1 5 3
1409 470 4 -8.1999999999999995e-01 5.3490126250976706e+00 6.8927375510390849e+00 3.5896928836875297e+00 3 3 -7
3102 1034 3 4.0999999999999998e-01 3.0667890144942143e+00 1.4948486708198383e+00 5.9989225491291549e+00 2 3 5
701 234 4 -8.1999999999999995e-01 2.8649064693888904e+00 5.4847183687235779e-01 3.2889018037724447e+00 -1 2 6
851 284 4 -8.1999999999999995e-01 1.3093016588239046e+00 9.0029356021225997e+00 1.5340253612832329e+00 -3 -4 2
852 284 3 4.0999999999999998e-01 7.1373906110565055e-01 9.0122420680993294e+00 7.0069575277171048e-01 -3 -4 2
702 234 3 4.0999999999999998e-01 3.4980769393849318e+00 2.7816620981161122e-01 2.5151526033676039e+00 -1 2 6
3416 1139 4 -8.1999999999999995e-01 1.0553162337597332e+01 4.9583051105648979e+00 2.7468418707996025e+00 1 -1 3
3930 1310 3 4.0999999999999998e-01 1.6660998504769786e+00 2.8261481831741118e+00 6.5554391305616964e+00 -3 5 1
3929 1310 4 -8.1999999999999995e-01 1.5762440908533224e+00 3.8563791592064058e+00 6.3083981484886289e+00 -3 5 1
3736 1246 3 4.0999999999999998e-01 9.3928201098979631e+00 4.7471320373140564e+00 6.5622013088432709e+00 3 0 -4
2755 919 3 4.0999999999999998e-01 2.7211674698668782e+00 6.7794578258033846e+00 6.0032121725064256e+00 1 2 2
7117 2373 3 4.0999999999999998e-01 6.3298529078887666e+00 7.5817744698030012e+00 1.0121711206166216e+01 6 1 0
9 3 3 4.0999999999999998e-01 7.5688979727289381e+00 3.8252246922183386e+00 9.9950886499654956e+00 -3 5 -6
7110 2370 3 4.0999999999999998e-01 4.3851603207084731e+00 7.0349631562067916e-01 4.4040413215485652e-01 3 2 3
5775 1925 3 4.0999999999999998e-01 3.1109857495298843e+00 1.8072492637765227e+00 8.3695966595485913e+00 -2 1 3
8 3 4 -8.1999999999999995e-01 6.9669553611249215e+00 4.4295775945788973e+00 9.3829600211486355e+00 -3 5 -6
237 79 3 4.0999999999999998e-01 7.0641085131906045e-01 7.0957452940478714e+00 6.8345884180497531e+00 1 2 4
4114 1372 3 4.0999999999999998e-01 2.9166335858901058e+00 5.9793600231256843e+00 2.0447103389502299e+00 2 -4 3
6879 2293 3 4.0999999999999998e-01 8.2234088508245726e+00 4.4807880951368667e-01 1.0197026075038793e+00 -2 -3 4
3303 1101 3 4.0999999999999998e-01 6.1151054139349608e+00 9.5764056852569635e+00 1.9190838250538638e+00 3 -3 2
1115 372 4 -8.1999999999999995e-01 4.5391692473199470e+00 4.9448799386903168e+00 8.3641083600187525e+00 -2 -1 0
6198 2066 3 4.0999999999999998e-01 9.1927085730044720e+00 9.6092553480229603e-01 3.2230964533979529e+00 0 -6 -3
6231 2077 3 4.0999999999999998e-01 6.2287932079292458e+00 3.1686159160581173e+00 2.8790848897425922e+00 -3 5 -2
5651 1884 4 -8.1999999999999995e-01 7.9646167965613071e+00 8.4149285745651952e+00 4.2182208154132326e+00 -5 -2 1
5340 1780 3 4.0999999999999998e-01 4.2713450082999055e-01 5.0261131505591257e+00 5.8484672953728056e+00 1 -1 0
516 172 3 4.0999999999999998e-01 8.3973140368792247e+00 2.6884601844569742e+00 2.7872991686648758e+00 -1 5 3
5000 1667 4 -8.1999999999999995e-01 5.2351242491466286e+00 4.4915848208670983e+00 2.4310689983277243e+00 0 -2 0
6126 2042 3 4.0999999999999998e-01 1.6744514810762414e+00 6.1427575485617396e+00 8.9250994755452187e+00 0 1 -1
7181 2394 4 -8.1999999999999995e-01 9.7878096207221876e+00 8.5026191563045153e+00 2.4293126609315366e-01 1 -2 1
4460 1487 4 -8.1999999999999995e-01 5.4821274199077559e+00 4.7773000810982680e-01 7.2338079792566372e+00 -5 -1 3
2757 919 3 4.0999999999999998e-01 3.0901115761576561e+00 8.1357123842934023e+00 5.2257372295182209e+00 1 2 2
3928 1310 3 4.0999999999999998e-01 1.5129691000399828e+00 4.3659719179091594e+00 7.1920343066569323e+00 -3 5 1
6230 2077 4 -8.1999999999999995e-01 6.8246107048998512e+00 2.5298355066995897e+00 3.4688952344511055e+00 -3 5 -2
4459 1487 3 4.0999999999999998e-01 6.1400269212230647e+00 1.2425964352359411e+00 6.9316651604445045e+00 -5 -1 3
6819 2273 3 4.0999999999999998e-01 4.7986613533842499e+00 8.1880742155897899e+00 8.4777844762926069e+00 1 3 2
5652 1884 3 4.0999999999999998e-01 7.8322243121920527e+00 8.1369942893692677e+00 5.1747294348023738e+00 -5 -2 1
4034 1345 4 -8.1999999999999995e-01 2.0368576325646752e+00 9.5749799491219036e+00 4.6686677931543477e+00 -9 -3 -5
901 301 3 4.0999999999999998e-01 6.8342082228727330e+00 7.3649250211627297e+00 7.1503603447617099e+00 1 -1 0
4594 1532 3 4.0999999999999998e-01 3.4943084052337370e+00 9.6074621044993762e+00 9.0271901333295741e+00 3 0 0
7 3 3 4.0999999999999998e-01 7.4888308290485881e+00 4.8476893267820280e+00 8.5774044751944452e+00 -3 5 -6
3100 1034 3 4.0999999999999998e-01 1.9620408027050724e+00 4.0417711884786856e-01 6.7895390052281597e+00 2 3 5
1116 372 3 4.0999999999999998e-01 4.8024699191158708e+00 5.8883921007997628e+00 8.0579673340979312e+00 -2 -1 0
6125 2042 4 -8.1999999999999995e-01 1.9674034518551700e+00 5.1754084447989142e+00 8.8012715772703487e+00 0 1 -1
7119 2373 3 4.0999999999999998e-01 6.4382136733968922e+00 5.9098275493702417e+00 1.0407268811202737e+01 6 1 0
90 30 3 4.0999999999999998e-01 8.7308810238180179e+00 8.0303523883629324e-01 9.0960394336480519e+00 0 1 2
5834 1945 4 -8.1999999999999995e-01 9.7332866136009795e+00 1.4138025054559764e+00 7.4910710488579948e+00 4 2 1
4461 1487 3 4.0999999999999998e-01 4.9822359815981425e+00 9.2659073132979275e-01 7.9915965576420591e+00 -5 -1 3
3737 1246 4 -8.1999999999999995e-01 8.6059233611187871e+00 5.0668509377739301e+00 7.1747020085933393e+00 3 0 -4
1410 470 3 4.0999999999999998e-01 6.1430614114809341e+00 7.4851182087142973e+00 3.6564763738047397e+00 3 3 -7
5835 1945 3 4.0999999999999998e-01 8.9175647507315983e+00 1.9509349296745635e+00 7.1511012652367505e+00 4 2 1
4999 1667 3 4.0999999999999998e-01 4.4879072902207300e+00 4.5591558211568390e+00 1.7807021537815715e+00 0 -2 0
7109 2370 4 -8.1999999999999995e-01 4.4921128230803209e+00 1.7442722230253463e-01 1.3961365444730220e+00 3 2 3
5650 1884 3 4.0999999999999998e-01 8.9754286831394996e+00 8.2863311282458039e+00 3.9779150293516246e+00 -5 -2 1
700 234 3 4.0999999999999998e-01 3.1246787809977299e+00 1.5130920168980730e+00 3.5350790722552521e+00 -1 2 6
515 172 4 -8.1999999999999995e-01 9.4088187597400328e+00 2.5738162453942133e+00 2.6466502677035351e+00 -1 5 3
3417 1139 3 4.0999999999999998e-01 1.0227944712548233e+01 5.9401762361714905e+00 2.9275993274519783e+00 1 -1 3
4835 1612 4 -8.1999999999999995e-01 1.0397840218312073e+01 7.9786232238663768e+00 3.2079964338632876e+00 0 1 1
4488 1496 3 4.0999999999999998e-01 5.7467321564092115e+00 2.0670905970310993e-01 5.4307674829263739e+00 -1 -1 0
4595 1532 4 -8.1999999999999995e-01 4.1662260261044501e+00 9.1003633670346584e+00 9.5719875215285999e+00 3 0 0
6229 2077 3 4.0999999999999998e-01 6.3327591573241229e+00 1.6869206380944117e+00 3.8476209990501813e+00 -3 5 -2
2245 749 3 4.0999999999999998e-01 7.2699871488786547e+00 3.3022566803373161e+00 6.9111000651357628e+00 0 -2 1
850 284 3 4.0999999999999998e-01 9.4648184699591476e-01 8.2503117679427831e+00 2.1195797208505809e+00 -3 -4 2
3301 1101 3 4.0999999999999998e-01 7.4240434985791932e+00 9.3474163199811358e+00 2.9249010812980298e+00 3 -3 2
5430 1810 3 4.0999999999999998e-01 8.0753975325579948e+00 9.5929727988439097e+00 9.1552610351798123e+00 -5 0 3
3738 1246 3 4.0999999999999998e-01 8.4731015988190990e+00 6.0575002575164278e+00 7.1323525067056410e+00 3 0 -4
3542 1181 4 -8.1999999999999995e-01 9.4213116417388214e+00 9.6413579590050613e-01 4.5352892915805554e-01 5 1 3
89 30 4 -8.1999999999999995e-01 8.1786559332770352e+00 4.7346726023839925e-01 9.8619705454835476e+00 0 1 2
3823 1275 3 4.0999999999999998e-01 1.6182658033553048e+00 8.8914080419399220e+00 8.0267861362543300e+00 2 1 -3
1408 470 3 4.0999999999999998e-01 4.7630935166173369e+00 7.0733977860482238e+00 4.4653328061099788e+00 3 3 -7
5774 1925 4 -8.1999999999999995e-01 3.9404403122284757e+00 1.9581042844702976e+00 8.9694934873955905e+00 -2 1 3
5429 1810 4 -8.1999999999999995e-01 8.8846078338429209e+00 9.6899098800880896e+00 8.5022028073452933e+00 -5 0 3
1114 372 3 4.0999999999999998e-01 5.3638053125760710e+00 4.4695312126752613e+00 8.6927893344853224e+00 -2 -1 0
3824 1275 4 -8.1999999999999995e-01 1.8634982248542649e+00 9.8666476351734786e+00 8.2529540072411827e+00 2 1 -3
7182 2394 3 4.0999999999999998e-01 9.1127111430843453e+00 9.0951896825652518e+00 7.6892043156458856e-01 1 -2 1
3825 1275 3 4.0999999999999998e-01 9.4590028549242178e-01 1.0239674955771733e+01 8.2931553278745422e+00 2 1 -3
5833 1945 3 4.0999999999999998e-01 9.9966398916300747e+00 1.1019148163892671e+00 6.5280408188305969e+00 4 2 1
6478 2160 3 4.0999999999999998e-01 7.4310327697543976e-01 7.1300732280982204e-01 3.1287673509728271e+00 0 2 1
4596 1532 3 4.0999999999999998e-01 3.5278493424777562e+00 8.7181385333235752e+00 1.0296353542774293e+01 3 0 0
632 211 4 -8.1999999999999995e-01 4.8357394886933891e-01 3.1635605687750665e+00 1.5891905350114939e+00 0 4 -5
2116 706 3 4.0999999999999998e-01 1.8514174885100484e-01 6.7161350411359475e+00 3.9258265453499388e+00 5 1 -1
88 30 3 4.0999999999999998e-01 7.8905128341241850e+00 1.2792643217252289e+00 1.0443431250242687e+01 0 1 2
4033 1345 3 4.0999999999999998e-01 2.6289757928795727e+00 1.0324926837573406e+01 5.1373769873371815e+00 -9 -3 -5
1832 611 4 -8.1999999999999995e-01 6.6311343672114145e+00 9.8717093036176937e+00 1.0070676880291275e+01 -1 -2 4
1833 611 3 4.0999999999999998e-01 5.6411485958269258e+00 9.6314725149651998e+00 9.7491554419270336e+00 -1 -2 4
4809 1603 3 4.0999999999999998e-01 1.1134123600532795e+00 1.0406790435646323e+01 1.3321172984369865e+00 4 2 1
1299 433 3 4.0999999999999998e-01 5.4222129514888362e+00 7.5044184515711718e+00 1.2047692990193305e+01 -5 1 7
3948 1316 3 4.0999999999999998e-01 5.0763971805494110e+00 7.3899106213834704e+00 1.5383693286904302e+01 5 1 3
905 302 4 -8.1999999999999995e-01 4.8499323604205120e+00 9.2554807967154629e-01 1.3357885422143090e+01 0 7 7
3801 1267 3 4.0999999999999998e-01 1.7821131089174542e+00 7.7579811421801814e+00 1.1908247730566616e+01 -1 -1 0
4644 1548 3 4.0999999999999998e-01 3.4425288263569132e-01 8.5277796358568758e-01 1.5590867567462750e+01 3 0 0
6547 2183 3 4.0999999999999998e-01 9.1576489102917620e+00 9.8623395814409298e-01 2.0526900142855311e+01 -4 3 0
2284 762 3 4.0999999999999998e-01 1.7863281960426651e+00 5.7965881451536347e+00 1.9845998524272712e+01 -1 -3 3
998 333 4 -8.1999999999999995e-01 1.0036621094117733e+01 2.2365924409594764e+00 1.3861067327629906e+01 -1 0 -2
1959 653 3 4.0999999999999998e-01 8.6126602849206968e+00 2.4823022656579883e+00 1.2135326681929243e+01 2 3 -1
4538 1513 4 -8.1999999999999995e-01 8.8366445918075804e+00 3.2045137293668073e+00 1.5865949684774954e+01 -3 1 5
7053 2351 3 4.0999999999999998e-01 6.2815988037418711e+00 3.8361127135493809e+00 1.3874822328096517e+01 0 1 0
7051 2351 3 4.0999999999999998e-01 5.1695504924577218e+00 3.9656989081877052e+00 1.2667003684820772e+01 0 1 0
2804 935 4 -8.1999999999999995e-01 7.2009147903970385e+00 7.3364011481197844e+00 1.9545445987985978e+01 -3 -1 -5
2207 736 4 -8.1999999999999995e-01 5.0677156877279277e+00 5.7843272359741640e+00 1.8921657747763668e+01 -4 1 -1
3196 1066 3 4.0999999999999998e-01 7.6808925934613566e+00 2.0377188706176015e+00 1.6674937049749310e+01 -3 -2 1
3849 1283 3 4.0999999999999998e-01 2.1476734104605324e+00 4.0641204302674105e-01 1.3987200070088571e+01 -1 -3 1
2208 736 3 4.0999999999999998e-01 5.1105659289925081e+00 6.1471906623504271e+00 1.7932731710305251e+01 -4 1 -1
6636 2212 3 4.0999999999999998e-01 1.5977136315481673e+00 5.6861845067437820e+00 1.4831492268143338e+01 -2 3 0
4246 1416 3 4.0999999999999998e-01 8.6536997899039569e+00 6.2527111356597542e+00 1.5389548814653903e+01 -1 -3 0
73 25 3 4.0999999999999998e-01 4.7650539587181306e+00 9.5535870939389120e+00 1.9774683339701923e+01 0 0 -3
4640 1547 4 -8.1999999999999995e-01 3.7635479717384426e+00 4.8468075019284926e+00 1.2962819944048977e+01 3 -3 4
1148 383 4 -8.1999999999999995e-01 6.7405299445415725e+00 8.4765621014240580e+00 1.6048151820763106e+01 -1 -1 6
1957 653 3 4.0999999999999998e-01 7.1703419077737669e+00 2.9251780251793900e+00 1.1888488548804473e+01 2 3 -1
3640 1214 3 4.0999999999999998e-01 1.4400954529964018e+00 4.0842416902104572e+00 2.0684613890679188e+01 1 -5 1
5655 1885 3 4.0999999999999998e-01 8.9558395186291779e+00 7.8341260720707782e+00 2.0527390187923032e+01 -1 1 -3
3797 1266 4 -8.1999999999999995e-01 1.4424763994866565e+00 8.3139980036081749e+00 1.7563881924325386e+01 3 0 -2
906 302 3 4.0999999999999998e-01 5.3672115734252541e+00 1.8068610056791756e+00 1.3202556512973960e+01 0 7 7
6032 2011 4 -8.1999999999999995e-01 7.0887500236078207e+00 3.4577260565779677e+00 1.9239115065325766e+01 1 3 0
6634 2212 3 4.0999999999999998e-01 1.2191191000295354e+00 6.8478332726196482e+00 1.3646996062678580e+01 -2 3 0
1958 653 4 -8.1999999999999995e-01 7.9789634768457010e+00 2.5578307900339317e+00 1.1353704930695757e+01 2 3 -1
2803 935 3 4.0999999999999998e-01 6.5674785575420938e+00 6.5520253727021389e+00 1.9373692283152959e+01 -3 -1 -5
5654 1885 4 -8.1999999999999995e-01 9.9797071629538330e+00 7.9385182763347348e+00 2.0392917434251412e+01 -1 1 -3
6635 2212 4 -8.1999999999999995e-01 2.0047824350233183e+00 6.3531754333448029e+00 1.4169281779586560e+01 -2 3 0
2380 794 3 4.0999999999999998e-01 1.6002588901629529e+00 2.3833850713068729e+00 1.3829035652937572e+01 4 7 -2
4247 1416 4 -8.1999999999999995e-01 7.7810869391398603e+00 5.8628054309130899e+00 1.5847053361352721e+01 -1 -3 0
6932 2311 4 -8.1999999999999995e-01 3.5344513627449592e+00 9.8683054504174024e+00 1.6035829649080839e+01 3 5 3
5392 1798 3 4.0999999999999998e-01 8.3502407607783358e+00 7.0157257565219231e+00 1.1284313764530941e+01 -2 2 0
4315 1439 3 4.0999999999999998e-01 4.8254546493794539e+00 1.0152991969130631e+00 1.4911587911702732e+01 0 2 1
1297 433 3 4.0999999999999998e-01 5.3184365668141345e+00 6.8250581844202198e+00 1.3511926503275408e+01 -5 1 7
4316 1439 4 -8.1999999999999995e-01 4.7692065196495346e+00 8.8843075314469344e-01 1.5973143545057829e+01 0 2 1
2788 930 3 4.0999999999999998e-01 9.8803033965408638e+00 3.6904353243974146e+00 1.7900722570480738e+01 0 4 2
4380 1460 3 4.0999999999999998e-01 7.5723955887767165e+00 9.5910034823641599e+00 1.2105301950645485e+01 1 -2 2
6594 2198 3 4.0999999999999998e-01 5.0997261185588751e+00 9.6458380493770601e+00 1.3047085462128624e+01 1 5 1
5472 1824 3 4.0999999999999998e-01 2.2026659135985946e-01 5.3520431662274937e-01 1.9958436945735826e+01 -2 2 -3
7052 2351 4 -8.1999999999999995e-01 5.9866647585778141e+00 3.4616123573361675e+00 1.3008104310845562e+01 0 1 0
6918 2306 3 4.0999999999999998e-01 7.1170928960742321e+00 1.7794488551398924e+00 2.0231500699670395e+01 0 4 -1
6031 2011 3 4.0999999999999998e-01 6.9267449281874027e+00 2.7464935782415374e+00 1.8460531069966468e+01 1 3 0
2460 820 3 4.0999999999999998e-01 1.0059242368651470e+01 9.3375391664114993e+00 1.6353901802774871e+01 5 1 -4
5224 1742 3 4.0999999999999998e-01 9.8285454568786914e+00 6.7130329989496715e+00 1.3516237228867768e+01 3 1 0
2790 930 3 4.0999999999999998e-01 8.9375607198984870e+00 3.1562403293050956e+00 1.9113651273159409e+01 0 4 2
4639 1547 3 4.0999999999999998e-01 3.2210430856313765e+00 3.9599050773886280e+00 1.2882991275331930e+01 3 -3 4
5723 1908 4 -8.1999999999999995e-01 6.1129923884970239e-01 3.4570951478315481e+00 1.1002687671667704e+01 0 0 -1
74 25 4 -8.1999999999999995e-01 5.8297230935450868e+00 9.6981894100076822e+00 1.9664562548882522e+01 0 0 -3
3351 1117 3 4.0999999999999998e-01 2.3030929567028475e+00 9.6034550971322687e+00 1.8739613299863208e+01 -1 2 1
2425 809 3 4.0999999999999998e-01 3.4237866759978974e+00 1.8857220994402477e+00 1.7223072429291484e+01 6 1 -1
5394 1798 3 4.0999999999999998e-01 9.8786485005685307e+00 6.6217534561876290e+00 1.1363247568303734e+01 -2 2 0
7219 2407 3 4.0999999999999998e-01 5.3704378900113321e+00 4.8226935001269462e+00 1.5657627473839398e+01 2 -3 2
3798 1266 3 4.0999999999999998e-01 1.7001483163283835e+00 7.5784769502411278e+00 1.8252309047303843e+01 3 0 -2
1593 531 3 4.0999999999999998e-01 1.9353751199676694e+00 3.7185235027839800e+00 1.8439208534164333e+01 4 -4 -1
6033 2011 3 4.0999999999999998e-01 6.4631328993656876e+00 4.3212126523778434e+00 1.9217959982504052e+01 1 3 0
2427 809 3 4.0999999999999998e-01 3.9358264032792634e+00 3.5433850293473861e+00 1.6791274247988163e+01 6 1 -1
2426 809 4 -8.1999999999999995e-01 3.2198756813588125e+00 2.8953142466724788e+00 1.7165570122909973e+01 6 1 -1
1149 383 3 4.0999999999999998e-01 6.8567256444232010e+00 9.1686167973228674e+00 1.5273995900027392e+01 -1 -1 6
6592 2198 3 4.0999999999999998e-01 4.0938469519755829e+00 1.0135454425138589e+01 1.4431148992394442e+01 1 5 1
5466 1822 3 4.0999999999999998e-01 9.2182370709853707e+00 8.5035347647296060e+00 1.8721398359626541e+01 2 -1 1
3848 1283 4 -8.1999999999999995e-01 2.1516530917815277e+00 6.4627625966220892e-01 1.5006691470168821e+01 -1 -3 1
2458 820 3 4.0999999999999998e-01 1.0235584734389541e+01 8.2873118993505699e+00 1.4998746091012976e+01 5 1 -4
3847 1283 3 4.0999999999999998e-01 2.9005528370337772e+00 1.3700628935377928e+00 1.5197044775755241e+01 -1 -3 1
3947 1316 4 -8.1999999999999995e-01 4.6055047374619207e+00 6.4323436142535613e+00 1.5402666687212434e+01 5 1 3
2805 935 3 4.0999999999999998e-01 6.7272064116331940e+00 8.2731546997549241e+00 1.9543435331230551e+01 -3 -1 -5
1591 531 3 4.0999999999999998e-01 2.6763504642583313e-01 3.7786220275776787e+00 1.8538326373642469e+01 4 -4 -1
1422 474 3 4.0999999999999998e-01 1.6765844622254451e+00 3.8443638157917279e+00 1.6136148576701864e+01 1 1 -1
2286 762 3 4.0999999999999998e-01 2.5340113402909497e+00 7.2316950869495500e+00 2.0308185030130357e+01 -1 -3 3
2382 794 3 4.0999999999999998e-01 1.5770223811200537e+00 2.2444830508290572e+00 1.2258701973706373e+01 4 7 -2
4248 1416 3 4.0999999999999998e-01 7.2040261717078495e+00 6.6226865496785772e+00 1.6136110207664913e+01 -1 -3 0
3946 1316 3 4.0999999999999998e-01 3.7044102143111388e+00 6.5505881892518421e+00 1.4927438563119207e+01 5 1 3
7221 2407 3 4.0999999999999998e-01 6.6364877085878851e+00 4.3311077105545817e+00 1.6548221699799086e+01 2 -3 2
6548 2183 4 -8.1999999999999995e-01 1.0139020961961227e+01 1.0252825338239320e+00 2.0190024881218772e+01 -4 3 0
4537 1513 3 4.0999999999999998e-01 8.7650833283395109e+00 4.2528343541405382e+00 1.5772062196938338e+01 -3 1 5
2285 762 4 -8.1999999999999995e-01 2.3284481476455863e+00 6.5674973615690897e+00 1.9526047346707880e+01 -1 -3 3
4539 1513 3 4.0999999999999998e-01 9.3807795722234353e+00 2.8261765704310173e+00 1.5068871274440546e+01 -3 1 5
3796 1266 3 4.0999999999999998e-01 1.4347911360506589e+00 8.1581209367375873e+00 1.6577809579967095e+01 3 0 -2
1147 383 3 4.0999999999999998e-01 7.4247804683130809e+00 8.7530328193430922e+00 1.6777556148611087e+01 -1 -1 6
6549 2183 3 4.0999999999999998e-01 1.0200720915690946e+01 1.9542877370833032e+00 1.9759981271287312e+01 -4 3 0
6917 2306 4 -8.1999999999999995e-01 7.3375303307972963e+00 9.2298929248168726e-01 2.0786462120119253e+01 0 4 -1
3198 1066 3 4.0999999999999998e-01 6.1228757279307517e+00 1.6265939798410167e+00 1.6789649213843365e+01 -3 -2 1
3197 1066 4 -8.1999999999999995e-01 7.0292257279471713e+00 1.5321480714454321e+00 1.7279128413348040e+01 -3 -2 1
3800 1267 4 -8.1999999999999995e-01 2.6700048461854085e+00 8.0900955518963720e+00 1.1524626551141999e+01 -1 -1 0
1421 474 4 -8.1999999999999995e-01 8.4247100098553918e-01 4.4256981831911864e+00 1.6065611017320425e+01 1 1 -1
7220 2407 4 -8.1999999999999995e-01 5.7530142143808805e+00 3.9888909390733254e+00 1.6202636372876224e+01 2 -3 2
997 333 3 4.0999999999999998e-01 1.0337087499037267e+01 1.3045023521477601e+00 1.4092851091565567e+01 -1 0 -2
4379 1460 4 -8.1999999999999995e-01 8.2607758844652519e+00 1.0131847961112845e+01 1.2676831713168593e+01 1 -2 2
1298 433 4 -8.1999999999999995e-01 5.0405765259413835e+00 7.6547398134077689e+00 1.2962056492091472e+01 -5 1 7
75 25 3 4.0999999999999998e-01 5.9253589588130717e+00 1.0011538380035365e+01 1.8644340958264657e+01 0 0 -3
4641 1547 3 4.0999999999999998e-01 3.0848479838679985e+00 5.5502640244266006e+00 1.3356770746401740e+01 3 -3 4
2459 820 4 -8.1999999999999995e-01 1.0488421369393706e+01 9.2408336465095751e+00 1.5415657038074714e+01 5 1 -4
2206 736 3 4.0999999999999998e-01 4.0702369813340100e+00 5.8886411497906845e+00 1.9297068769517931e+01 -4 1 -1
1592 531 4 -8.1999999999999995e-01 1.1514458237065468e+00 3.6484847598529240e+00 1.9076726494239214e+01 4 -4 -1
5470 1824 3 4.0999999999999998e-01 7.9224429017862685e-01 2.1150516381095223e+00 1.9969664468568716e+01 -2 2 -3
2789 930 4 -8.1999999999999995e-01 9.8998063921444484e+00 3.3879188223914896e+00 1.8806303046565198e+01 0 4 2
6593 2198 4 -8.1999999999999995e-01 4.5542045895524970e+00 1.0443600074294620e+01 1.3513110592825861e+01 1 5 1
5393 1798 4 -8.1999999999999995e-01 9.2396636748852501e+00 7.3537462549570503e+00 1.1683096853419642e+01 -2 2 0
5225 1742 4 -8.1999999999999995e-01 1.0098929961127181e+01 6.7278352809839710e+00 1.4495960273693949e+01 3 1 0
5465 1822 4 -8.1999999999999995e-01 9.1756862208289949e+00 9.2695254998753551e+00 1.8027569898174772e+01 2 -1 1
3799 1267 3 4.0999999999999998e-01 3.4920229474173117e+00 7.7240386373245462e+00 1.2047314590780459e+01 -1 -1 0
5464 1822 3 4.0999999999999998e-01 9.3106685681579364e+00 1.0143680574407250e+01 1.8539755666048226e+01 2 -1 1
3350 1117 4 -8.1999999999999995e-01 3.0605594949801249e+00 1.0278838686822803e+01 1.9117424356287810e+01 -1 2 1
6933 2311 3 4.0999999999999998e-01 4.0920733372804587e+00 9.6036852955612861e+00 1.6875975002854187e+01 3 5 3
5471 1824 4 -8.1999999999999995e-01 7.3418000422452812e-01 1.2068358983954675e+00 2.0474612386832430e+01 -2 2 -3
2381 794 4 -8.1999999999999995e-01 2.1856848080810134e+00 2.5885777300367798e+00 1.3028460347481001e+01 4 7 -2
7118 2373 4 -8.1999999999999995e-01 6.5017025583315613e+00 6.8439920128635130e+00 1.0800894635917169e+01 6 1 0
904 302 3 4.0999999999999998e-01 4.3866207012199645e+00 7.0270431650178899e-01 1.2451050718138585e+01 0 7 7
7194 2398 3 4.0999999999999998e-01 1.0197937990683005e+01 8.5362207142762685e+00 1.1095036133656279e+01 6 -3 -2
6931 2311 3 4.0999999999999998e-01 2.7389524468132382e+00 1.0511146741150755e+01 1.6295029648128136e+01 3 5 3
5653 1885 3 4.0999999999999998e-01 1.0516148430533349e+01 7.0932361575373593e+00 2.0254497285529983e+01 -1 1 -3
5872 1958 3 4.0999999999999998e-01 4.3504310581654320e+00 4.2862852938100398e+00 2.0898655163683653e+01 -5 3 -3
5019 1673 3 4.0999999999999998e-01 6.5888786525195906e+00 1.2713945717269357e+00 3.0791820900609199e+01 3 -3 -1
5756 1919 4 -8.1999999999999995e-01 2.7548179039951752e+00 1.7898073552798399e+00 2.9257119342265110e+01 0 -1 0
912 304 3 4.0999999999999998e-01 2.7390899631845400e+00 1.0552086138333463e+00 2.2896275183313367e+01 -7 2 -3
281 94 4 -8.1999999999999995e-01 6.2749341605276134e+00 7.6342887385119385e+00 2.4085868773394740e+01 2 -4 -2
5963 1988 4 -8.1999999999999995e-01 6.2865460121861059e+00 6.4126237255780021e+00 2.9015117271066366e+01 -1 1 1
5107 1703 3 4.0999999999999998e-01 2.4781689414118522e+00 4.5215478193468606e+00 2.6161110261486076e+01 1 2 -1
1330 444 3 4.0999999999999998e-01 6.9964619683598430e+00 1.0948147097400693e+00 2.5155597361381250e+01 -3 -4 -1
3617 1206 4 -8.1999999999999995e-01 8.4228297304534792e+00 8.7791455431886014e+00 3.0015708586116997e+01 -2 0 -2
6928 2310 3 4.0999999999999998e-01 5.1498280874792579e-01 3.9715598163939982e+00 2.7993475400640804e+01 2 2 4
4384 1462 3 4.0999999999999998e-01 7.7777789182152262e+00 1.0227922644807437e+01 2.1929499603713872e+01 2 -3 2
3642 1214 3 4.0999999999999998e-01 2.5092309578556553e+00 4.6117631644886172e+00 2.1846434211957948e+01 1 -5 1
3634 1212 3 4.0999999999999998e-01 5.4551059610700730e+00 9.6417343646425060e+00 2.7588529475870637e+01 -1 0 3
5192 1731 4 -8.1999999999999995e-01 3.6721387766212525e+00 4.7249962119817743e+00 3.0603035005691499e+01 5 0 -3
4386 1462 3 4.0999999999999998e-01 7.9859524732699292e+00 1.0132463274521522e+01 2.3552713831619041e+01 2 -3 2
6490 2164 3 4.0999999999999998e-01 3.0013542487667508e+00 2.3078935078046041e+00 2.4746491080203835e+01 2 -4 -4
1331 444 4 -8.1999999999999995e-01 7.8394616374227253e+00 1.6689664736089813e+00 2.5277686848698288e+01 -3 -4 -1
6239 2080 4 -8.1999999999999995e-01 6.1203763360331092e+00 2.5535063950796753e+00 2.2873969184770505e+01 1 0 -2
910 304 3 4.0999999999999998e-01 1.9973078953530514e+00 1.0425942584203720e+00 2.1343535116953230e+01 -7 2 -3
4899 1633 3 4.0999999999999998e-01 2.6023096451262302e+00 9.2516980991583715e+00 2.4206512407591106e+01 2 1 -4
3601 1201 3 4.0999999999999998e-01 7.4439263392497628e+00 4.6456443077944050e+00 2.6101349444971845e+01 0 3 0
1715 572 4 -8.1999999999999995e-01 9.2126351944369755e+00 6.9194203085991157e+00 2.8079413969552760e+01 1 1 2
2758 920 3 4.0999999999999998e-01 3.2224453783510048e+00 7.1995648130191272e+00 2.8502760153253757e+01 2 -4 -1
2760 920 3 4.0999999999999998e-01 4.4369999837729921e+00 7.1344898829012706e+00 2.9678919315339474e+01 2 -4 -1
2266 756 3 4.0999999999999998e-01 6.0142264103854126e+00 2.9385873595334471e+00 2.9230432545689865e+01 5 -1 0
2714 905 4 -8.1999999999999995e-01 3.3103795179078914e+00 3.3956988271158774e+00 2.6956354316271298e+01 2 -1 2
7049 2350 4 -8.1999999999999995e-01 3.0128401800120130e-01 5.9316408978135904e+00 2.3774011229705291e+01 -3 1 -1
3618 1206 3 4.0999999999999998e-01 7.9220073792284884e+00 8.3772956540993402e+00 3.0754264014341704e+01 -2 0 -2
6238 2080 3 4.0999999999999998e-01 7.0559409033546512e+00 2.7348350712172773e+00 2.3075142751649611e+01 1 0 -2
3616 1206 3 4.0999999999999998e-01 8.5567951233951618e+00 7.9418651471107333e+00 2.9400451216830028e+01 -2 0 -2
5787 1929 3 4.0999999999999998e-01 2.4666349725932073e+00 7.6079204741871820e+00 2.2880854179490143e+01 5 -4 -1
4897 1633 3 4.0999999999999998e-01 1.0624549851764540e+00 9.3712545804153411e+00 2.4457506723696110e+01 2 1 -4
1716 572 3 4.0999999999999998e-01 8.5659839939961362e+00 6.3808074203401741e+00 2.7462713184639124e+01 1 1 2
6491 2164 4 -8.1999999999999995e-01 2.7327134366071113e+00 1.4035768475636321e+00 2.4410747943720004e+01 2 -4 -4
4218 1406 3 4.0999999999999998e-01 9.0571543800563266e+00 3.5021922477787797e+00 3.0294454098128842e+01 0 -1 -2
2428 810 3 4.0999999999999998e-01 9.8998206708085714e+00 1.2108295380509650e+00 3.0032436952057967e+01 3 2 1
1428 476 3 4.0999999999999998e-01 8.2401107586710278e+00 5.3819819164712728e+00 3.1130230986063435e+01 5 1 -2
5191 1731 3 4.0999999999999998e-01 3.3183973694557918e+00 5.6697995239320393e+00 3.0446496328868363e+01 5 0 -3