LAMMPS data file via write_data, version 5 Jun 2019, timestep = 21000000

7349 atoms
5 atom types
4899 bonds
2 bond types
2451 angles
2 angle types
1 impropers
1 improper types

1.5519297081455363e-01 4.1845807029189409e+01 xlo xhi
1.5469297081455124e-01 4.1845307029189406e+01 ylo yhi
1.5469297081455124e-01 4.1845307029189406e+01 zlo zhi

#Masses
#
#1 12.01
#2 40.08
#3 1.01
#4 16
#5 16
#
#Bond Coeffs # harmonic
#
#1 20.4246 1.3042
#2 22.965 1.012

Atoms # full

4890 1630 3 4.0999999999999998e-01 7.5269031244735221e+00 2.6266674864855362e+00 3.9601386636410824e-01 4 9 -1
5225 1742 4 -8.1999999999999995e-01 2.8141813703484506e+00 1.0303049226541805e+01 3.7844301064473789e+00 3 1 0
2975 992 4 -8.1999999999999995e-01 2.2541042488396082e-01 9.0092157865826206e+00 5.6981289086179947e+00 -2 1 1
3565 1189 3 4.0999999999999998e-01 8.7474783050683254e+00 1.8161377205356424e+00 7.7263547719625807e+00 -8 0 3
1985 662 4 -8.1999999999999995e-01 3.4397781903486413e+00 1.4306241892014426e+00 4.9352634617795565e-01 2 0 0
4389 1463 3 4.0999999999999998e-01 5.8290646453727746e+00 5.8413700387205330e+00 6.5771363767485909e+00 2 2 2
4313 1438 4 -8.1999999999999995e-01 8.1757968835229153e+00 1.0769029800608667e+00 9.2222897389521581e+00 3 -1 0
3940 1314 3 4.0999999999999998e-01 6.5093224182560130e+00 6.2646253365737454e+00 2.5283739789758009e-01 1 -2 -2
1986 662 3 4.0999999999999998e-01 2.6783870637850429e+00 9.4308433429429195e-01 1.0226323772204999e+00 2 0 0
2248 750 3 4.0999999999999998e-01 3.0185047635694811e+00 7.4106375942833189e+00 7.6664125319250891e+00 -1 2 -1
1715 572 4 -8.1999999999999995e-01 1.3948012945757828e+00 8.2140218219733789e+00 9.3475085699943943e+00 1 0 2
4696 1566 3 4.0999999999999998e-01 2.0501922600495703e-01 2.3928739786923812e+00 1.3908326580509871e+00 1 -1 3
1060 354 3 4.0999999999999998e-01 9.2813365627924700e+00 9.5507534751210219e+00 1.1539218484298133e+00 1 -3 3
2244 748 3 4.0999999999999998e-01 8.7719920810510015e+00 8.4655032861756563e-01 1.4457138406227423e+00 4 4 3
7158 2386 3 4.0999999999999998e-01 7.8260839142431546e+00 2.4878867112685330e+00 5.6162454253767322e+00 1 2 -2
825 275 3 4.0999999999999998e-01 4.3603674299710109e+00 8.5859608289875453e+00 5.7663860884689377e+00 3 3 1
7283 2428 4 -8.1999999999999995e-01 3.6121047310110854e+00 6.6904373595997582e+00 1.4482157954043309e+00 4 -1 1
3996 1332 3 4.0999999999999998e-01 6.6035400321250242e+00 1.9560954985919281e+00 8.6463947278027415e+00 1 -5 1
1981 661 3 4.0999999999999998e-01 5.3464550047218049e+00 5.8129393507237133e+00 8.3162583236814172e+00 4 7 1
1043 348 4 -8.1999999999999995e-01 8.8678691583933333e-01 8.6166170515074754e+00 3.0058611084044977e+00 -1 -2 -1
5893 1965 3 4.0999999999999998e-01 1.2932670445834027e+00 9.7269662864596498e+00 6.7587219088569208e+00 5 3 -1
1984 662 3 4.0999999999999998e-01 3.6142712977092026e+00 2.3759689814860696e+00 9.5976311336947684e-01 2 0 0
4525 1509 3 4.0999999999999998e-01 5.8770849020140661e+00 3.5360681831788576e+00 4.6448528230428314e+00 0 1 0
1002 334 3 4.0999999999999998e-01 7.0328583484934635e+00 7.8784986793463281e+00 3.8096927559534284e+00 0 -3 1
5167 1723 3 4.0999999999999998e-01 8.1545986971698330e+00 8.0365822149667174e+00 5.8464971777395105e+00 -3 0 0
7284 2428 3 4.0999999999999998e-01 3.7682492724946837e+00 7.3228684786500029e+00 2.1656893563517934e+00 4 -1 1
3995 1332 4 -8.1999999999999995e-01 6.0373691635315794e+00 2.5271807353983347e+00 8.0602327782321304e+00 1 -5 1
1001 334 4 -8.1999999999999995e-01 7.3106566406076219e+00 7.2981912555554995e+00 4.6094442236445392e+00 0 -3 1
432 144 3 4.0999999999999998e-01 6.3483434917568573e+00 1.1010454431438543e+00 4.0259248251302306e+00 -2 2 2
5169 1723 3 4.0999999999999998e-01 7.5878663565531372e+00 8.8896661411770150e+00 7.2745077257831126e+00 -3 0 0
3526 1176 3 4.0999999999999998e-01 9.2470961306134802e-01 4.3156114634109146e+00 7.1538169674810534e+00 3 3 -2
1044 348 3 4.0999999999999998e-01 5.3125246802399695e-01 9.1001672753145932e+00 2.1346917820887490e+00 -1 -2 -1
1079 360 4 -8.1999999999999995e-01 8.6596005564730962e+00 4.5086862720078065e+00 2.3524791749576606e+00 0 1 -4
3536 1179 4 -8.1999999999999995e-01 5.3480539032499648e+00 7.6526455464168945e+00 1.0105628696351554e+01 -1 2 1
5932 1978 3 4.0999999999999998e-01 3.6107117465236760e+00 4.9089594676228767e+00 1.7806794098085132e+00 2 -2 2
1983 661 3 4.0999999999999998e-01 6.1947226601703136e+00 4.4432579732428623e+00 8.2113408172069047e+00 4 7 1
1080 360 3 4.0999999999999998e-01 8.0175448267984741e+00 5.0405207194479678e+00 1.8151926634705944e+00 0 1 -4
6146 2049 4 -8.1999999999999995e-01 2.7551224732803417e+00 1.9989393946890954e+00 7.6070514027764391e+00 -3 -3 4
1841 614 4 -8.1999999999999995e-01 8.8567261499212293e+00 5.1867329211441007e+00 6.7763322270496404e+00 2 2 2
1042 348 3 4.0999999999999998e-01 4.4319262762395950e-01 7.7042319443504814e+00 3.1661132608933875e+00 -1 -2 -1
1379 460 4 -8.1999999999999995e-01 9.6775709853242340e+00 6.2385219202295321e+00 4.1108413983192049e+00 -1 -5 -2
4527 1509 3 4.0999999999999998e-01 4.9585374118682797e+00 4.9650842251276917e+00 4.6108146968832839e+00 0 1 0
4387 1463 3 4.0999999999999998e-01 4.2868224564274273e+00 6.5620292239176221e+00 6.1461517525428881e+00 2 2 2
2250 750 3 4.0999999999999998e-01 2.2112676252830199e+00 7.2549569416040445e+00 6.3088987695568344e+00 -1 2 -1
1078 360 3 4.0999999999999998e-01 9.0625067254574763e+00 5.2038242307907598e+00 2.9875723391513014e+00 0 1 -4
5226 1742 3 4.0999999999999998e-01 2.1237331022746631e+00 9.5627917577788697e+00 3.5734074538687990e+00 3 1 0
6147 2049 3 4.0999999999999998e-01 3.4349221306333786e+00 1.2895243603886661e+00 7.8517576078036129e+00 -3 -3 4
3528 1176 3 4.0999999999999998e-01 2.3064322656227776e+00 3.4562210768534474e+00 7.6003964285707468e+00 3 3 -2
7157 2386 4 -8.1999999999999995e-01 6.9751833100831000e+00 2.1563370482541160e+00 5.1367255422892892e+00 1 2 -2
1014 338 3 4.0999999999999998e-01 5.4988593878986869e+00 8.9140902085190206e+00 3.6850336910583685e+00 -2 0 -2
431 144 4 -8.1999999999999995e-01 5.8665707801629594e+00 8.2284137845132288e-01 3.1025421258025001e+00 -2 2 2
5887 1963 3 4.0999999999999998e-01 5.2033955085673045e-01 3.4016154683759664e-01 6.4976988718675555e-01 -2 1 -4
2249 750 4 -8.1999999999999995e-01 3.1090650242737086e+00 7.5041073618253824e+00 6.7127862882466962e+00 -1 2 -1
2471 824 4 -8.1999999999999995e-01 1.0433421581084739e+01 7.0723417123068657e+00 8.9196926546659867e+00 -1 2 -2
1982 661 4 -8.1999999999999995e-01 6.2328168250470197e+00 5.4434714485000502e+00 8.0057444323262779e+00 4 7 1
2027 676 4 -8.1999999999999995e-01 3.4047766665410766e+00 1.8048022067619343e+00 4.9975947884378087e+00 2 1 -1
4314 1438 3 4.0999999999999998e-01 8.4218152517330935e+00 1.3258756169623085e+00 1.0204888817974739e+01 3 -1 0
430 144 3 4.0999999999999998e-01 6.3209565994840897e+00 1.3857967420763964e+00 2.3801017719315793e+00 -2 2 2
5934 1978 3 4.0999999999999998e-01 4.4614738045928206e+00 3.8437219163902152e+00 2.7929224449405390e+00 2 -2 2
5102 1701 4 -8.1999999999999995e-01 4.4952029009495326e-01 1.8852574109946949e+00 8.8020488504223682e+00 -2 -1 3
3994 1332 3 4.0999999999999998e-01 5.2757917055275287e+00 1.9001186616012480e+00 8.0891113715343543e+00 1 -5 1
6364 2122 3 4.0999999999999998e-01 4.6487863574041253e+00 4.7108565437087160e+00 1.0325684489279039e+01 1 2 0
4698 1566 3 4.0999999999999998e-01 2.3893532029088077e-01 2.5348580290550684e+00 3.0830818439785772e+00 1 -1 3
4526 1509 4 -8.1999999999999995e-01 4.9367772417001650e+00 3.9748873244867253e+00 4.2882133328132586e+00 0 1 0
3941 1314 4 -8.1999999999999995e-01 6.6097202713448260e+00 5.8050849441317292e+00 1.1864792877733978e+00 1 -2 -2
5894 1965 4 -8.1999999999999995e-01 1.8562739639864205e+00 1.0420560919814960e+01 7.3266641802955093e+00 5 3 -1
5101 1701 3 4.0999999999999998e-01 1.4103715418602207e+00 1.7956019261639704e+00 8.4138844794624319e+00 -2 -1 3
1061 354 4 -8.1999999999999995e-01 8.9556817158838395e+00 9.7899280789819638e+00 2.0726916623816454e+00 1 -3 3
6145 2049 3 4.0999999999999998e-01 3.0007640339170769e+00 2.1169833345748299e+00 6.6131686427705461e+00 -3 -3 4
3942 1314 3 4.0999999999999998e-01 5.8252246618545742e+00 5.8710172520582864e+00 1.7923130224564976e+00 1 -2 -2
2028 676 3 4.0999999999999998e-01 3.8570161431382552e+00 2.6737098928732115e+00 4.7562794676346316e+00 2 1 -1
3873 1291 3 4.0999999999999998e-01 5.8737919617257672e+00 1.0119226390029500e+01 6.4536135583551113e+00 1 -3 1
2026 676 3 4.0999999999999998e-01 2.9483932187279773e+00 1.4650576265905815e+00 4.1340931853046197e+00 2 1 -1
6626 2209 4 -8.1999999999999995e-01 6.7542860658194694e+00 9.9760021079237333e+00 1.0193050517069164e+01 -1 0 1
2976 992 3 4.0999999999999998e-01 3.9148261024003517e-01 8.8985707220994801e+00 4.7190117096506761e+00 -2 1 1
3566 1189 4 -8.1999999999999995e-01 9.1675574773848538e+00 2.3439384448823346e+00 6.8797018164772679e+00 -8 0 3
1378 460 3 4.0999999999999998e-01 8.7736525469729507e+00 6.6022021788018694e+00 4.4142035787798397e+00 -1 -5 -2
7282 2428 3 4.0999999999999998e-01 2.9768891161006321e+00 6.9395701907925682e+00 6.8520325684863026e-01 4 -1 1
1714 572 3 4.0999999999999998e-01 1.5249620825158148e+00 9.1336553488739796e+00 8.8585066326541515e+00 1 0 2
1000 334 3 4.0999999999999998e-01 6.4054740711489098e+00 6.9767104549734569e+00 5.0195653205300363e+00 0 -3 1
1840 614 3 4.0999999999999998e-01 7.9639616099480861e+00 5.5043667100526639e+00 7.2266522070452863e+00 2 2 2
3527 1176 4 -8.1999999999999995e-01 1.9730641456449585e+00 4.4094967648288854e+00 7.2750355252556664e+00 3 3 -2
1716 572 3 4.0999999999999998e-01 2.1445721211430375e+00 8.3027304881175557e+00 1.0083044771186943e+01 1 0 2
6597 2199 3 4.0999999999999998e-01 3.0311382078653848e+00 5.2887785278600230e+00 8.3006674867286545e+00 7 3 4
4888 1630 3 4.0999999999999998e-01 7.7804939490759359e+00 3.2652237879231576e+00 1.9468198343336600e+00 4 9 -1
7156 2386 3 4.0999999999999998e-01 6.5319130783475519e+00 1.6196009711826347e+00 5.8831778036794802e+00 1 2 -2
6795 2265 3 4.0999999999999998e-01 1.0094384406491741e+00 4.6115350730348004e+00 1.6003495003310853e+00 3 3 1
1380 460 3 4.0999999999999998e-01 1.0139537741186079e+01 5.7774829719105814e+00 4.8751625046941056e+00 -1 -5 -2
5933 1978 4 -8.1999999999999995e-01 3.9891016919366415e+00 3.9517063594218942e+00 1.8600976048000841e+00 2 -2 2
4388 1463 4 -8.1999999999999995e-01 5.2676654641864094e+00 6.2582122712959078e+00 5.8105543282042724e+00 2 2 2
5168 1723 4 -8.1999999999999995e-01 8.3606340922806002e+00 8.7426116304864223e+00 6.5658402065984527e+00 -3 0 0
6596 2199 4 -8.1999999999999995e-01 3.5563891197448987e+00 5.7556802273185479e+00 9.0738586903361735e+00 7 3 4
1012 338 3 4.0999999999999998e-01 5.5729537574690298e+00 9.0793198954599710e+00 1.9127075898641279e+00 -2 0 -2
2242 748 3 4.0999999999999998e-01 1.0274228445816277e+01 1.2587774740046975e+00 1.5426573379726509e+00 4 4 3
6595 2199 3 4.0999999999999998e-01 2.8422926234054104e+00 5.8499505761258304e+00 9.7640807154790199e+00 7 3 4
691 231 3 4.0999999999999998e-01 1.3057221602905664e+00 1.7455629512147384e+00 1.0118069716419052e+01 3 -4 -2
6625 2209 3 4.0999999999999998e-01 6.0793557673292904e+00 9.1554116310496134e+00 1.0030269796902408e+01 -1 0 1
5847 1949 3 4.0999999999999998e-01 9.4138625537754663e+00 1.7468618526343249e-01 3.8432467190782305e+00 -2 1 10
1842 614 3 4.0999999999999998e-01 8.9264987295215121e+00 4.1854542655554496e+00 7.0962792366555547e+00 2 2 2
7276 2426 3 4.0999999999999998e-01 9.9741118796021677e+00 3.5950998810522781e+00 2.2346659225612044e+00 3 -3 2
3535 1179 3 4.0999999999999998e-01 4.9170979532919876e+00 6.8166190470504517e+00 9.7224629114657226e+00 -1 2 1
824 275 4 -8.1999999999999995e-01 4.8266561802921659e+00 9.2911902130874235e+00 5.1512630965636239e+00 3 3 1
2470 824 3 4.0999999999999998e-01 9.5842793437259282e+00 7.3705302551597072e+00 9.3364472363416926e+00 -1 2 -2
1432 478 3 4.0999999999999998e-01 1.0322589905667000e+01 9.6354575922475725e+00 9.0989028825913287e+00 0 -3 2
4889 1630 4 -8.1999999999999995e-01 7.4155968830305596e+00 2.4034752291487096e+00 1.4139647123815571e+00 4 9 -1
1062 354 3 4.0999999999999998e-01 8.1129710375803672e+00 9.2757755052693263e+00 2.1761432694364333e+00 1 -3 3
4697 1566 4 -8.1999999999999995e-01 7.2942182512931786e-01 2.7582026084918247e+00 2.2078884842645081e+00 1 -1 3
1013 338 4 -8.1999999999999995e-01 6.0989216683930483e+00 8.8681445821734624e+00 2.8325308456088338e+00 -2 0 -2
2243 748 4 -8.1999999999999995e-01 9.6541084908617663e+00 4.3679038998717423e-01 1.6853188384491924e+00 4 4 3
3567 1189 3 4.0999999999999998e-01 1.0130178430069680e+01 2.5572187085885862e+00 7.2546224864763191e+00 -8 0 3
6794 2265 4 -8.1999999999999995e-01 7.1227623329482781e-01 5.5437816205797583e+00 1.3581273587760982e+00 3 3 1
1434 478 3 4.0999999999999998e-01 1.0082349947029208e+01 9.4005085667900445e+00 7.4685779704206112e+00 0 -3 2
2438 813 4 -8.1999999999999995e-01 4.4569985401435508e+00 1.0087807361743659e+01 9.3864748503832529e-01 -1 -5 1
823 275 3 4.0999999999999998e-01 4.0866345224014795e+00 9.7922446241792116e+00 4.6248156544814076e+00 3 3 1
3872 1291 4 -8.1999999999999995e-01 6.2187819716094737e+00 1.0545633756709915e+01 7.3280806511712555e+00 1 -3 1
46 16 3 4.0999999999999998e-01 8.2518693684563438e+00 1.0390068688606062e+01 5.3312930028169943e+00 4 0 0
3537 1179 3 4.0999999999999998e-01 4.4779036545816702e+00 8.1053222460171828e+00 1.0524151551132411e+01 -1 2 1
3861 1287 3 4.0999999999999998e-01 8.4699095074969470e+00 9.8780723604565210e+00 1.0534104124574201e+01 0 -5 -1
5198 1733 4 -8.1999999999999995e-01 4.5131674649538498e+00 1.6442568414108487e+00 1.0564234237032462e+01 0 1 0
5044 1682 3 4.0999999999999998e-01 1.1485195537963322e+00 6.6851737589005777e+00 4.1584496459316966e-01 4 1 1
5406 1802 3 4.0999999999999998e-01 1.2224429228067271e+00 4.9401454672358875e+00 1.6035767318977449e+01 -1 -1 2
5920 1974 3 4.0999999999999998e-01 9.7165424266348257e+00 1.1878457403271276e+00 1.2062165823715711e+01 0 3 -4
1339 447 3 4.0999999999999998e-01 7.9230297243799805e+00 6.2196569904757721e+00 1.0993385593209611e+01 -4 6 -1
4805 1602 4 -8.1999999999999995e-01 7.6171002313822438e+00 6.1147104430108730e+00 1.5169383626526569e+01 0 4 3
4804 1602 3 4.0999999999999998e-01 7.5734037449469875e+00 5.8737241331719670e+00 1.6179707849949157e+01 0 4 3
5038 1680 3 4.0999999999999998e-01 5.0896969667402088e+00 3.4852434712397424e+00 1.8339959332903085e+01 -1 -2 -4
5197 1733 3 4.0999999999999998e-01 5.0288127997908143e+00 9.6844588167048451e-01 1.1251927427633508e+01 0 1 0
3746 1249 4 -8.1999999999999995e-01 9.6426056777167943e+00 3.9763928101872925e+00 1.9259033909195807e+01 2 0 2
4422 1474 3 4.0999999999999998e-01 2.7155441572546573e+00 8.6852684529844488e+00 1.1954883070469258e+01 1 -4 3
5040 1680 3 4.0999999999999998e-01 6.0432120795253512e+00 2.2646295990741283e+00 1.7774399254956954e+01 -1 -2 -4
5818 1940 3 4.0999999999999998e-01 8.0406611257531342e+00 9.2869958169158409e+00 1.9448070944415342e+01 0 2 2
5640 1880 3 4.0999999999999998e-01 6.3506726941133511e+00 2.6950766386631235e+00 1.4359448926743609e+01 3 -3 1
5449 1817 3 4.0999999999999998e-01 1.8156844783850801e-01 1.0485937258956321e+01 1.9171059676685150e+01 2 3 -4
4669 1557 3 4.0999999999999998e-01 6.7665997809201350e+00 7.5648201334666600e+00 1.9693179866065361e+01 -2 0 2
307 103 3 4.0999999999999998e-01 8.3035733501421465e+00 3.3454140953456748e+00 1.1895915139856688e+01 -2 -2 4
692 231 4 -8.1999999999999995e-01 1.5654900746743170e+00 1.4026816383601841e+00 1.1076089074735105e+01 3 -4 -2
6365 2122 4 -8.1999999999999995e-01 5.3490613122463060e+00 4.2448715247047755e+00 1.0912682044879991e+01 1 2 0
5819 1940 4 -8.1999999999999995e-01 8.1707821056540126e+00 8.4508435172401928e+00 1.8845427010483590e+01 0 2 2
2048 683 4 -8.1999999999999995e-01 2.3277836681311950e+00 6.0215386902764241e+00 1.1379582321639592e+01 -1 3 -1
4420 1474 3 4.0999999999999998e-01 3.8056841214830754e+00 9.9357507967397769e+00 1.1643253151480398e+01 1 -4 3
5921 1974 4 -8.1999999999999995e-01 8.8093633298462510e+00 1.6658324910818980e+00 1.1944361074329400e+01 0 3 -4
309 103 3 4.0999999999999998e-01 6.9884669709125848e+00 4.0384589959464883e+00 1.1318293715772175e+01 -2 -2 4
4827 1609 3 4.0999999999999998e-01 3.1006523105449308e+00 9.5721818908438880e+00 1.6466433483861767e+01 -1 4 -3
5638 1880 3 4.0999999999999998e-01 6.2077039819217914e+00 1.2027183353144428e+00 1.3661093779162833e+01 3 -3 1
4826 1609 4 -8.1999999999999995e-01 3.5222874385152698e+00 9.8441141385780444e+00 1.5606888921125911e+01 -1 4 -3
3747 1249 3 4.0999999999999998e-01 1.0381713210702303e+01 4.4697348717319523e+00 1.9777001689644251e+01 2 0 2
5199 1733 3 4.0999999999999998e-01 3.4689944716468513e+00 1.6295545180037774e+00 1.0744762748717365e+01 0 1 0
6349 2117 3 4.0999999999999998e-01 2.3938461716842712e+00 2.5277786617086475e+00 1.4219523860723042e+01 -1 -1 5
1341 447 3 4.0999999999999998e-01 7.2378920098325619e+00 7.6759452127865231e+00 1.0915609360947744e+01 -4 6 -1
5405 1802 4 -8.1999999999999995e-01 2.1100914975429683e+00 4.9282447479278018e+00 1.6472264870423668e+01 -1 -1 2
5639 1880 4 -8.1999999999999995e-01 6.7966760493815643e+00 1.7403082700443908e+00 1.4315188016617533e+01 3 -3 1
4819 1607 3 4.0999999999999998e-01 1.0219245714237129e+01 7.3869607297065292e+00 1.3805135361717083e+01 2 1 5
4821 1607 3 4.0999999999999998e-01 9.9944605952677676e+00 8.9775024249387538e+00 1.4225051780623577e+01 2 1 5
6350 2117 4 -8.1999999999999995e-01 2.1465695721456490e+00 2.7736146168828046e+00 1.3246281022281792e+01 -1 -1 5
2724 908 3 4.0999999999999998e-01 3.7059332952264468e+00 2.4476282617764964e+00 1.6425127285545930e+01 1 0 -1
2049 683 3 4.0999999999999998e-01 2.7884993945236625e+00 5.9764812461941208e+00 1.2274030404216722e+01 -1 3 -1
4421 1474 4 -8.1999999999999995e-01 3.3535998620207415e+00 9.1027911219869360e+00 1.1213053071867140e+01 1 -4 3
1846 616 3 4.0999999999999998e-01 4.2440373805453699e+00 6.8983957770681386e+00 1.9255385563061974e+01 1 8 -2
5693 1898 4 -8.1999999999999995e-01 3.1786876242868947e+00 5.7326868536044957e+00 1.4021664893533293e+01 1 5 4
4486 1496 3 4.0999999999999998e-01 2.4577813931127031e+00 5.6587307846956181e-01 1.5449782096406032e+01 -1 0 2
4580 1527 4 -8.1999999999999995e-01 7.4947543689521599e+00 8.5366009763544888e+00 1.6303469698024905e+01 4 0 3
3052 1018 3 4.0999999999999998e-01 1.1804757380532231e+00 8.5020761766215767e+00 1.3519477852449681e+01 8 3 -1
6497 2166 4 -8.1999999999999995e-01 7.7047755985751527e+00 1.7305325040913457e+00 1.8691239054105900e+01 1 -2 4
4579 1527 3 4.0999999999999998e-01 7.6682480988114312e+00 9.3955639612719146e+00 1.5806625341995320e+01 4 0 3
6498 2166 3 4.0999999999999998e-01 8.1286759979305749e+00 8.3984200030512046e-01 1.8391700548082866e+01 1 -2 4
1847 616 4 -8.1999999999999995e-01 3.3482358066057092e+00 6.8084351368185718e+00 1.8739996220114197e+01 1 8 -2
6237 2079 3 4.0999999999999998e-01 6.6523353771859091e+00 5.3401975011260721e+00 1.8180507411172158e+01 3 -1 -2
4334 1445 4 -8.1999999999999995e-01 9.5468730887640056e+00 5.8092716389136045e+00 1.3509836628807191e+01 4 -1 0
243 81 3 4.0999999999999998e-01 9.8083892358634337e+00 7.8021235814123742e+00 1.8655468913710614e+01 2 2 2
6257 2086 4 -8.1999999999999995e-01 1.5423526222533284e+00 4.2932380724963028e+00 1.9172756092744290e+01 -3 -1 -2
6351 2117 3 4.0999999999999998e-01 1.9251726492033070e+00 3.7641421872603162e+00 1.3024474748203474e+01 -1 -1 5
5694 1898 3 4.0999999999999998e-01 2.7868962591891711e+00 5.4937887037988995e+00 1.4931216178584460e+01 1 5 4
1848 616 3 4.0999999999999998e-01 3.0502121372433288e+00 5.7942707884993734e+00 1.8759025159384731e+01 1 8 -2
6236 2079 4 -8.1999999999999995e-01 7.6336640075761713e+00 5.6319260906657558e+00 1.7968782824757849e+01 3 -1 -2
6450 2150 3 4.0999999999999998e-01 6.2280192092345779e+00 4.3070057645900848e+00 2.0025873398469688e+01 2 -1 4
316 106 3 4.0999999999999998e-01 4.3549985687049739e+00 1.3212629403971961e+00 1.8185588128765612e+01 3 2 -1
4335 1445 3 4.0999999999999998e-01 9.2851769063631462e+00 5.2322271401565921e+00 1.2660950804740891e+01 4 -1 0
3053 1018 4 -8.1999999999999995e-01 2.2533354035946651e+00 8.3769636881347793e+00 1.3398528919970456e+01 8 3 -1
5730 1910 3 4.0999999999999998e-01 2.9657556151819779e+00 8.4375098634735224e+00 1.8370787854530686e+01 4 -3 3
5039 1680 4 -8.1999999999999995e-01 5.1779332283058199e+00 2.7966569325054071e+00 1.7591040465695642e+01 -1 -2 -4
5692 1898 3 4.0999999999999998e-01 2.9605432561332012e+00 6.7179175577119805e+00 1.3839146091019424e+01 1 5 4
6366 2122 3 4.0999999999999998e-01 5.0161468818465877e+00 3.2595647571400672e+00 1.0877183955780607e+01 1 2 0
3745 1249 3 4.0999999999999998e-01 9.1510573407485918e+00 4.6185532004797842e+00 1.8644135470556815e+01 2 0 2
5820 1940 3 4.0999999999999998e-01 7.9168953604282590e+00 8.6635329360490072e+00 1.7816396978796746e+01 0 2 2
2723 908 4 -8.1999999999999995e-01 2.7453341018043989e+00 2.3181834274973454e+00 1.5966161469674384e+01 1 0 -1
6258 2086 3 4.0999999999999998e-01 1.3571423513289607e+00 3.5587724717469826e+00 1.9878853471108666e+01 -3 -1 -2
3054 1018 3 4.0999999999999998e-01 2.8045306997862496e+00 8.8262103494414461e+00 1.4154305030782664e+01 8 3 -1
3129 1043 3 4.0999999999999998e-01 9.8994117302316198e-01 1.4979428371598433e+00 1.6657193096933408e+01 -2 2 1
4333 1445 3 4.0999999999999998e-01 8.8117667113519680e+00 5.7718975681258264e+00 1.4210959942577835e+01 4 -1 0
927 309 3 4.0999999999999998e-01 5.9444632168192788e+00 4.6434478727561395e+00 1.2733310966999722e+01 3 3 3
2047 683 3 4.0999999999999998e-01 1.4949273650746691e+00 5.4383047856243838e+00 1.1378584173520547e+01 -1 3 -1
308 103 4 -8.1999999999999995e-01 7.9754444912233158e+00 4.2060785170124069e+00 1.1472111423325909e+01 -2 -2 4
5922 1974 3 4.0999999999999998e-01 8.1415913665737953e+00 1.3264382090723552e+00 1.2679755267080738e+01 0 3 -4
6449 2150 4 -8.1999999999999995e-01 5.3639164648090283e+00 4.7109426550448044e+00 1.9478472383404249e+01 2 -1 4
6496 2166 3 4.0999999999999998e-01 8.4262094871742459e+00 2.4002811016215739e+00 1.8929623034545635e+01 1 -2 4
3859 1287 3 4.0999999999999998e-01 9.4359269320025678e+00 8.6930953824387132e+00 1.0957033395782091e+01 0 -5 -1
4581 1527 3 4.0999999999999998e-01 7.7092647371180387e+00 7.6321515223186678e+00 1.5771529863435708e+01 4 0 3
318 106 3 4.0999999999999998e-01 3.9315937712682065e+00 2.6390716518651153e-01 1.9505000320099168e+01 3 2 -1
2722 908 3 4.0999999999999998e-01 2.4274449233048965e+00 3.2581220276385867e+00 1.6198105055572654e+01 1 0 -1
925 309 3 4.0999999999999998e-01 4.8482082860008973e+00 4.5796288714688318e+00 1.3847862267031806e+01 3 3 3
4806 1602 3 4.0999999999999998e-01 6.7639255862826193e+00 5.7174005150437015e+00 1.4877590401118553e+01 0 4 3
5728 1910 3 4.0999999999999998e-01 1.5442922328388875e+00 9.3953588230984781e+00 1.8364095706477194e+01 4 -3 3
5404 1802 3 4.0999999999999998e-01 2.0058081633340645e+00 4.8649904930355756e+00 1.7465874560715587e+01 -1 -1 2
4670 1557 4 -8.1999999999999995e-01 5.8771204221075486e+00 7.2371124447446009e+00 1.9987758356082729e+01 -2 0 2
6448 2150 3 4.0999999999999998e-01 5.3548764196932366e+00 5.6047876249668143e+00 2.0021366263770208e+01 2 -1 4
693 231 3 4.0999999999999998e-01 1.4229068699506462e+00 2.0769558469717930e+00 1.1882471918101590e+01 3 -4 -2
926 309 4 -8.1999999999999995e-01 5.7890326650429609e+00 4.3849827799625505e+00 1.3730546577440252e+01 3 3 3
6235 2079 3 4.0999999999999998e-01 7.8488943994004057e+00 6.5798429549522837e+00 1.8314454202421629e+01 3 -1 -2
4110 1370 3 4.0999999999999998e-01 8.0199177023689128e+00 4.0221416602114370e+00 2.0676818652419371e+01 0 2 -4
4825 1609 3 4.0999999999999998e-01 4.5079228258435888e+00 9.9895732049975798e+00 1.5821553168178429e+01 -1 4 -3
1219 407 3 4.0999999999999998e-01 7.3546051044678400e+00 4.9588769766869523e-01 1.5284472713763462e+01 2 1 4
5729 1910 4 -8.1999999999999995e-01 2.5167273560022085e+00 9.3678283013707269e+00 1.8065868610646877e+01 4 -3 3
4671 1557 3 4.0999999999999998e-01 5.5388100303091434e+00 7.8951656506097532e+00 2.0721397524534229e+01 -2 0 2
317 106 4 -8.1999999999999995e-01 3.9222881078779430e+00 3.6166429354199919e-01 1.8473338096133357e+01 3 2 -1
6120 2040 3 4.0999999999999998e-01 1.0132695228560653e+01 8.4111327620070480e+00 2.0800601699022749e+01 0 2 -2
1340 447 4 -8.1999999999999995e-01 8.0867122360401513e+00 7.1770922123288932e+00 1.1009880408645616e+01 -4 6 -1
6256 2086 3 4.0999999999999998e-01 7.2836576984072776e-01 4.8604480501675136e+00 1.8977394026910350e+01 -3 -1 -2
3860 1287 4 -8.1999999999999995e-01 9.4245151822975544e+00 9.6498320084926341e+00 1.0791107648187296e+01 0 -5 -1
2944 982 3 4.0999999999999998e-01 8.4617974679244201e-01 1.0395549738830940e+01 2.0999219422734829e+01 2 2 0
3307 1103 3 4.0999999999999998e-01 9.9626161891240184e+00 4.6212606720046780e+00 1.0885088062358729e+01 -1 -1 -4
4994 1665 4 -8.1999999999999995e-01 7.5084008711644072e+00 9.6066424213064074e+00 2.9696178642150372e+01 1 -3 -2
2552 851 4 -8.1999999999999995e-01 4.4030714837109013e+00 4.8855797464660418e+00 2.3738526885980441e+01 5 -1 1
879 293 3 4.0999999999999998e-01 8.0682683944839688e+00 5.9551291774270443e-01 3.1011460371267766e+01 1 -1 0
2824 942 3 4.0999999999999998e-01 6.4697450656879560e+00 7.9812207727887108e+00 2.3829761890653145e+01 0 2 2
6932 2311 4 -8.1999999999999995e-01 3.9862600003557134e+00 8.3224081671584518e+00 2.1875992299661647e+01 3 4 2
3415 1139 3 4.0999999999999998e-01 5.5610749610937686e+00 3.3430985351238574e-01 2.4144217712094356e+01 1 -1 1
1588 530 3 4.0999999999999998e-01 5.9977882216066813e+00 1.0111839229719079e+01 2.4803515223748587e+01 1 0 1
971 324 4 -8.1999999999999995e-01 1.0269590770269975e+01 4.4177431994930378e+00 2.9288143592185481e+01 -4 5 -5
6661 2221 3 4.0999999999999998e-01 7.0654888670839391e+00 5.6820072824153485e+00 2.3792574110425065e+01 -1 0 -1
1369 457 3 4.0999999999999998e-01 3.1952206683005584e+00 9.0264584447192959e+00 2.5309801124085862e+01 4 -4 2
1371 457 3 4.0999999999999998e-01 2.6446833470177356e+00 9.9896809729265730e+00 2.6554162453768839e+01 4 -4 2
269 90 4 -8.1999999999999995e-01 6.4216800267440961e+00 1.3591593136900737e+00 2.8153167898406451e+01 -3 1 0
5425 1809 3 4.0999999999999998e-01 8.9610891279097302e+00 3.1647631598324395e+00 2.6467906271962701e+01 -1 1 0
4995 1665 3 4.0999999999999998e-01 6.6317716300881582e+00 1.0064241434106707e+01 2.9715103401483550e+01 1 -3 -2
3027 1009 3 4.0999999999999998e-01 1.1723298864013789e+00 2.2337016586459275e+00 2.6344353898262572e+01 -3 4 -2
4745 1582 4 -8.1999999999999995e-01 5.4464423401930817e-01 2.5453199888290561e+00 2.1386124068050858e+01 2 1 -1
2463 821 3 4.0999999999999998e-01 6.7324980049779066e+00 1.9145858263681643e+00 2.4014943788720633e+01 5 1 -2
4914 1638 3 4.0999999999999998e-01 3.9672372259936237e+00 1.0197047970393680e+01 2.9030483220299413e+01 -1 -2 -5
1516 506 3 4.0999999999999998e-01 3.9238993724202618e+00 2.3874367499743840e-01 3.0887197236756116e+01 4 3 0
2461 821 3 4.0999999999999998e-01 8.4175793985660974e+00 1.5247359054398422e+00 2.4066729801412954e+01 5 1 -2
5919 1973 3 4.0999999999999998e-01 4.5771743062902859e+00 8.0205927281391318e+00 2.9116116397007570e+01 0 4 -1
4109 1370 4 -8.1999999999999995e-01 7.1573818142309804e+00 3.8344596498116204e+00 2.1157836178095302e+01 0 2 -4
5917 1973 3 4.0999999999999998e-01 5.8474531909354601e+00 7.6044789789862381e+00 2.8168989267900926e+01 0 4 -1
4623 1541 3 4.0999999999999998e-01 4.2979779187888694e+00 3.3542235244680803e+00 2.2488201793367733e+01 -2 -4 1
1592 531 4 -8.1999999999999995e-01 7.1373344684687492e+00 8.2173077386129432e+00 2.7483315936145196e+01 5 -3 -1
2462 821 4 -8.1999999999999995e-01 7.5415048808123100e+00 1.4936632302438528e+00 2.3563754914359333e+01 5 1 -2
874 292 3 4.0999999999999998e-01 3.2884796270336651e+00 1.8798451199624104e+00 2.7191118098088943e+01 -2 5 -4
4108 1370 3 4.0999999999999998e-01 7.4384842120610415e+00 4.2183393552319579e+00 2.2088695918751650e+01 0 2 -4
2946 982 3 4.0999999999999998e-01 4.4775891927692241e-01 9.5071202935741077e+00 2.2416601292538886e+01 2 2 0
4996 1666 3 4.0999999999999998e-01 2.8370659490014565e+00 9.2185538053896430e+00 3.1153086921951704e+01 -2 0 0
5408 1803 4 -8.1999999999999995e-01 9.9898553767123506e+00 3.9724006583584670e-01 2.4346368616298300e+01 -4 4 -5
5561 1854 4 -8.1999999999999995e-01 7.8418302881860837e+00 8.8238871525327696e+00 2.3613487929638175e+01 -1 1 2
833 278 4 -8.1999999999999995e-01 2.4703469231476380e+00 1.0309053083868555e+01 2.8248864206889074e+01 -3 -2 1
5918 1973 4 -8.1999999999999995e-01 5.0016060928746962e+00 7.2455006491285898e+00 2.8568716144238312e+01 0 4 -1
4501 1501 3 4.0999999999999998e-01 4.8415378402206883e+00 5.4611776173241919e+00 2.9656348910717170e+01 -1 1 -1
6662 2221 4 -8.1999999999999995e-01 7.9142903885717804e+00 5.2384769751655247e+00 2.3385314194564316e+01 -1 0 -1
1913 638 4 -8.1999999999999995e-01 9.7683784401789904e+00 2.2717092912820500e+00 3.1279657986782244e+01 -2 -5 -3
875 292 4 -8.1999999999999995e-01 3.7064371051488658e+00 2.0801503162745520e+00 2.8127582254351285e+01 -2 5 -4
636 212 3 4.0999999999999998e-01 1.0312254417558140e+01 7.3428269247003053e+00 2.7594172872615474e+01 4 -2 -4
832 278 3 4.0999999999999998e-01 2.2717253663603958e+00 9.7559982555670608e+00 2.9097743569941176e+01 -3 -2 1
3026 1009 4 -8.1999999999999995e-01 2.0186563228397287e+00 2.0241387076767539e+00 2.5761692644024787e+01 -3 4 -2
1591 531 3 4.0999999999999998e-01 8.0097023945524750e+00 8.1169372483770967e+00 2.7008483782527350e+01 5 -3 -1
380 127 4 -8.1999999999999995e-01 9.6539616586608545e+00 8.1211393326726729e+00 2.6313820189434296e+01 -4 0 3
2827 943 3 4.0999999999999998e-01 3.0600852916028138e+00 2.1077941080415030e-01 2.1459323169176159e+01 -3 3 2
5427 1809 3 4.0999999999999998e-01 7.3356205748523964e+00 3.2140682617197247e+00 2.5875935574994344e+01 -1 1 0
3650 1217 4 -8.1999999999999995e-01 7.8222667467590945e+00 5.1521534088875178e+00 2.8761962544315374e+01 6 3 3