LAMMPS data file via write_data, version 5 Jun 2019, timestep = 2640000

7349 atoms
5 atom types
4899 bonds
2 bond types
2451 angles
2 angle types
1 impropers
1 improper types

1.5519297081455363e-01 4.1845807029189409e+01 xlo xhi
1.5469297081455124e-01 4.1845307029189406e+01 ylo yhi
1.5469297081455124e-01 4.1845307029189406e+01 zlo zhi

#Masses
#
#1 12.01
#2 40.08
#3 1.01
#4 16
#5 16
#
#Bond Coeffs # harmonic
#
#1 20.4246 1.3042
#2 22.965 1.012

Atoms # full

2614 872 3 4.0999999999999998e-01 9.4242440456187566e+00 1.0433159435218037e+01 4.0818054293824115e+00 2 1 -1
5552 1851 4 -8.1999999999999995e-01 9.3150988313722713e+00 1.1219101972158476e+00 1.5751604577670733e+00 0 0 1
3139 1047 3 4.0999999999999998e-01 1.0297801373832595e+01 5.6201427658523535e+00 6.2426197090260613e+00 0 2 0
1051 351 3 4.0999999999999998e-01 7.0102632596593892e+00 3.3164906058220009e+00 8.2417469693912047e+00 -1 0 0
2071 691 3 4.0999999999999998e-01 6.5961191809630799e+00 5.2450547174120095e+00 4.0273310672152070e+00 1 0 3
4417 1473 3 4.0999999999999998e-01 3.0189189510006829e+00 3.3287053630396044e+00 4.8650260413773605e+00 0 1 0
5413 1805 3 4.0999999999999998e-01 3.7001752520951467e+00 5.9977074508063035e+00 4.7856919969831541e-01 -1 2 0
4344 1448 3 4.0999999999999998e-01 3.5051999794528621e+00 6.0664726664517490e+00 9.9663656849142868e+00 1 1 -1
4809 1603 3 4.0999999999999998e-01 4.8565776772247897e+00 1.0101533632836802e+01 3.1041294534839872e+00 1 1 -1
2509 837 3 4.0999999999999998e-01 8.9237047290190006e+00 7.3927031205521407e+00 7.4623193005409920e+00 0 1 2
4830 1610 3 4.0999999999999998e-01 2.2081581782676603e+00 7.6539669722286492e+00 7.3967001307006761e+00 1 0 1
5424 1808 3 4.0999999999999998e-01 1.0333179266397785e+01 8.1746870621055390e+00 1.0066739641369923e+01 0 -1 -1
5653 1885 3 4.0999999999999998e-01 6.2638937476111489e-01 6.5937312972293745e+00 3.3872537651033081e+00 2 1 0
6291 2097 3 4.0999999999999998e-01 8.1858019526628478e+00 5.4837508696921589e+00 5.5654198267602863e+00 -2 -1 0
4139 1380 4 -8.1999999999999995e-01 1.5745321095034730e+00 4.8835744070199238e+00 6.1322256034647653e+00 1 1 0
3759 1253 3 4.0999999999999998e-01 5.5090230936867455e+00 5.2436133612750195e+00 8.3091213533635564e+00 1 1 -1
2616 872 3 4.0999999999999998e-01 8.4680821816270342e+00 9.4285068761644748e+00 3.1887991667408366e+00 2 1 -1
5675 1892 4 -8.1999999999999995e-01 5.4370670834623942e+00 6.7022294366296258e+00 4.1729830461620274e+00 0 0 -1
4138 1380 3 4.0999999999999998e-01 2.2862602365228804e+00 4.9332491801075786e+00 5.3518724531658100e+00 1 1 0
6865 2289 3 4.0999999999999998e-01 2.5520003021890574e+00 8.2816566185699347e+00 3.5788042693377484e+00 1 1 0
1102 368 3 4.0999999999999998e-01 7.0243695796547243e+00 1.2720377912248200e+00 2.8257776152711185e+00 0 2 0
802 268 3 4.0999999999999998e-01 9.0289859248016191e-01 1.0682500927186132e+00 2.5374918890278129e+00 1 -1 -1
1741 581 3 4.0999999999999998e-01 8.6387359759012252e+00 9.5048466889139682e+00 7.9675371451685182e+00 1 0 0
4807 1603 3 4.0999999999999998e-01 5.9967449641514694e+00 1.0077432813626018e+01 4.1682633380729017e+00 1 1 -1
4419 1473 3 4.0999999999999998e-01 3.3518331607965393e+00 1.7439183411713923e+00 4.4575655422918476e+00 0 1 0
6123 2041 3 4.0999999999999998e-01 7.5000784064324559e+00 4.8982540584011129e+00 1.0162651211274794e+01 -1 0 0
921 307 3 4.0999999999999998e-01 8.7886947951726668e+00 7.2616378177288365e-01 1.0064833395510906e+01 0 0 1
6867 2289 3 4.0999999999999998e-01 2.6694688074842041e+00 7.8207791961556739e+00 5.1895193401407864e+00 1 1 0
6644 2215 4 -8.1999999999999995e-01 9.2734493022631188e+00 4.5394771705491399e+00 5.3720247775934105e-01 0 1 0
6118 2040 3 4.0999999999999998e-01 4.0070856976469633e+00 5.5633395645825336e+00 4.4369302074070465e+00 1 0 0
5414 1805 4 -8.1999999999999995e-01 4.2853845110100686e+00 6.1680952535488673e+00 1.3281451589325961e+00 -1 2 0
5674 1892 3 4.0999999999999998e-01 5.2110992299643790e+00 7.2255948586979235e+00 3.3137613323112296e+00 0 0 -1
4418 1473 4 -8.1999999999999995e-01 2.9281348135421639e+00 2.3495642887175716e+00 5.1114737479362855e+00 0 1 0
3878 1293 4 -8.1999999999999995e-01 4.8184893925498518e+00 3.5109041990609247e+00 2.1480984656726734e+00 0 2 2
6290 2097 4 -8.1999999999999995e-01 8.6561442151043355e+00 5.8237451229871429e+00 6.4336186781519578e+00 -2 -1 0
4140 1380 3 4.0999999999999998e-01 9.3583949554708867e-01 4.1216158239223128e+00 5.8060184163104687e+00 1 1 0
4195 1399 3 4.0999999999999998e-01 4.4406667206701833e+00 8.6951344625900298e+00 7.0625669609076560e+00 1 1 1
2073 691 3 4.0999999999999998e-01 7.1412360558548098e+00 3.7266654155403272e+00 3.6352363014412727e+00 1 0 3
6289 2097 3 4.0999999999999998e-01 8.4657278396484656e+00 5.1471130864947421e+00 7.1621673005290800e+00 -2 -1 0
4882 1628 3 4.0999999999999998e-01 8.0748182192841025e+00 1.9292645521149578e+00 6.6513033570937621e+00 0 1 -1
1238 413 4 -8.1999999999999995e-01 9.9279054414815544e+00 3.6643217261252552e+00 3.9413815173354436e+00 2 0 1
2488 830 3 4.0999999999999998e-01 1.9798749686416228e+00 4.7669867248108817e+00 7.7340453277624785e+00 -2 0 0
4199 1400 4 -8.1999999999999995e-01 4.6246722251163463e+00 8.7371520609870128e+00 1.7094212696991906e+00 0 1 1
4884 1628 3 4.0999999999999998e-01 7.1408746514625348e+00 2.9562036280661390e+00 5.8766532874397877e+00 0 1 -1
1104 368 3 4.0999999999999998e-01 8.0764080673567999e+00 2.4724636340376454e+00 2.5398242441078058e+00 0 2 0
4883 1628 4 -8.1999999999999995e-01 7.4696296490031280e+00 2.7230199122842356e+00 6.8037325085457727e+00 0 1 -1
1239 413 3 4.0999999999999998e-01 9.0113220811029944e+00 4.1238373791653524e+00 3.7909336266816998e+00 2 0 1
2489 830 4 -8.1999999999999995e-01 2.1965430409471618e+00 4.4167214575934421e+00 8.6788658007163075e+00 -2 0 0
5155 1719 3 4.0999999999999998e-01 7.8181919777159212e+00 8.6865361838535353e+00 5.2284983725806118e+00 2 -1 0
359 120 4 -8.1999999999999995e-01 7.2540006537136605e+00 9.6382322449260016e+00 1.6628375495508509e+00 1 1 -1
804 268 3 4.0999999999999998e-01 2.1160879017067766e+00 1.8212406632944318e+00 1.4720188528574318e+00 1 -1 -1
7070 2357 4 -8.1999999999999995e-01 4.3912587018778035e+00 7.2837233551104785e-01 3.3366736465171156e+00 1 1 -1
4829 1610 4 -8.1999999999999995e-01 1.2735552042925551e+00 7.2492594152649295e+00 7.6710319412421102e+00 1 0 1
2358 786 3 4.0999999999999998e-01 5.8355787868753133e+00 4.0654136176476108e+00 3.9518762383067174e-01 0 -1 1
2490 830 3 4.0999999999999998e-01 1.5326486242993893e+00 4.7977756251086445e+00 9.3633007754568620e+00 -2 0 0
4828 1610 3 4.0999999999999998e-01 1.0992257169075552e+00 6.6534462554719607e+00 6.8539534989388944e+00 1 0 1
6643 2215 3 4.0999999999999998e-01 1.0128838158170977e+01 3.9984692447663943e+00 5.4741650646158480e-01 0 1 0
1743 581 3 4.0999999999999998e-01 7.1154483424914892e+00 1.0180503015897095e+01 7.9224311586799692e+00 1 0 0
360 120 3 4.0999999999999998e-01 7.2970027797790884e+00 1.0520842360868080e+01 2.1420388430200661e+00 1 1 -1
770 257 4 -8.1999999999999995e-01 8.6100726585278196e+00 2.4223655645322198e-01 6.2615145626876370e+00 1 0 0
3757 1253 3 4.0999999999999998e-01 3.7787628619927842e+00 5.0823281631274684e+00 8.2162937267753851e+00 1 1 -1
1103 368 4 -8.1999999999999995e-01 7.0772805690000071e+00 2.3329668211337449e+00 2.7139958536813000e+00 0 2 0
4198 1400 3 4.0999999999999998e-01 4.3220765082227457e+00 7.8204589955787673e+00 1.4093054695306562e+00 0 1 1
7069 2357 3 4.0999999999999998e-01 4.2969068268262349e+00 8.5678981532014986e-01 2.3138745983657372e+00 1 1 -1
2072 691 4 -8.1999999999999995e-01 7.2566599364836852e+00 4.4562501535532180e+00 4.3298523206196569e+00 1 0 3
2094 698 3 4.0999999999999998e-01 7.9873146428853072e+00 8.1517376124457552e+00 7.2944271458463750e-01 0 0 0
5676 1892 3 4.0999999999999998e-01 5.7437145572734218e+00 7.3523999289453483e+00 4.9284355509338766e+00 0 0 -1
6866 2289 4 -8.1999999999999995e-01 2.3888371715013412e+00 7.5723484185710248e+00 4.2565478923646110e+00 1 1 0
5156 1719 4 -8.1999999999999995e-01 6.8136536253232354e+00 8.6540359540202729e+00 5.3054761039608156e+00 2 -1 0
803 268 4 -8.1999999999999995e-01 1.1276880015930246e+00 1.7370565222703391e+00 1.7850451015208042e+00 1 -1 -1
5551 1851 3 4.0999999999999998e-01 1.0237927353694648e+01 1.3701768665796621e+00 1.8484815252172053e+00 0 0 1
358 120 3 4.0999999999999998e-01 6.2938393151440319e+00 9.2810118910195563e+00 1.5293981379024022e+00 1 1 -1
2511 837 3 4.0999999999999998e-01 1.0320856321789005e+01 8.2239914501759639e+00 8.0045207814303367e+00 0 1 2
6360 2120 3 4.0999999999999998e-01 3.4379261280922808e+00 1.9081256946555372e+00 6.8866840322135605e+00 1 -1 -1
4197 1399 3 4.0999999999999998e-01 3.9946586444609755e+00 7.1576577036828395e+00 7.3138185657179573e+00 1 1 1
5415 1805 3 4.0999999999999998e-01 4.5328041830568244e+00 5.1825513053112164e+00 1.5617025675348304e+00 -1 2 0
2070 690 3 4.0999999999999998e-01 6.5606338231597827e-01 2.2736804343730737e+00 5.5609907055965593e+00 0 0 1
3632 1211 4 -8.1999999999999995e-01 5.4838705499226714e+00 9.9423930982582895e+00 7.5318058068445666e+00 0 1 0
2727 909 3 4.0999999999999998e-01 3.4800930658354021e+00 2.7103044662687874e+00 1.0137885012964446e+01 -1 -1 -1
4200 1400 3 4.0999999999999998e-01 4.1238591483321176e+00 9.4955607971331606e+00 1.2396734553507367e+00 0 1 1
2615 872 4 -8.1999999999999995e-01 9.2794725369111983e+00 9.4324413375542218e+00 3.7952576440654555e+00 2 1 -1
2725 909 3 4.0999999999999998e-01 3.9595759433017328e+00 1.4631579026258343e+00 9.2272424870140313e+00 -1 -1 -1
3877 1293 3 4.0999999999999998e-01 4.3090223174355851e+00 2.8270761875435158e+00 1.5897096338802335e+00 0 2 2
6358 2120 3 4.0999999999999998e-01 3.0766540700373723e+00 3.5763225574648827e-01 7.5744478796762467e+00 1 -1 -1
5492 1831 4 -8.1999999999999995e-01 5.2157089864430279e+00 1.0053579832272646e+01 1.0130733939415265e+01 0 -1 1
5157 1719 3 4.0999999999999998e-01 6.4455440167183395e+00 9.2151076574098099e+00 6.1163039516040802e+00 2 -1 0
6119 2040 4 -8.1999999999999995e-01 3.4829887468105434e+00 4.7396831959771832e+00 4.2467881419211437e+00 1 0 0
3631 1211 3 4.0999999999999998e-01 5.2647351767158499e+00 1.0060647366212702e+01 8.5632268912449376e+00 0 1 0
6359 2120 4 -8.1999999999999995e-01 3.7145953969756245e+00 1.1517148160920014e+00 7.5849437786711844e+00 1 -1 -1
3819 1273 3 4.0999999999999998e-01 1.5784111157897294e+00 1.0037402126653854e+01 5.5606160979099668e+00 1 0 0
3818 1273 4 -8.1999999999999995e-01 2.0889481824644656e+00 1.0279014051199782e+01 6.3832955523449604e+00 1 0 0
3879 1293 3 4.0999999999999998e-01 5.7141112410968056e+00 3.0522376244909246e+00 2.4570035048996219e+00 0 2 2
4196 1399 4 -8.1999999999999995e-01 3.6544638598520742e+00 8.0083353845268128e+00 6.8666003181591666e+00 1 1 1
769 257 3 4.0999999999999998e-01 9.1513210758916834e+00 5.3514296907339665e-01 5.4735024370327388e+00 1 0 0
6645 2215 3 4.0999999999999998e-01 9.4937231456875821e+00 5.5366382913143584e+00 5.1016841834798254e-01 0 1 0
2510 837 4 -8.1999999999999995e-01 9.2501334495970404e+00 8.1717287030622785e+00 7.9996112124980936e+00 0 1 2
6120 2040 3 4.0999999999999998e-01 3.8690956731232542e+00 4.4650227764858332e+00 3.3369219957592486e+00 1 0 0
3758 1253 4 -8.1999999999999995e-01 4.6011541171836354e+00 5.7093445658746660e+00 8.3556013235191671e+00 1 1 -1
7071 2357 3 4.0999999999999998e-01 5.2686140139210380e+00 2.0371573986841646e-01 3.5049033551632895e+00 1 1 -1
2726 909 4 -8.1999999999999995e-01 4.2019841948928436e+00 1.9555582359846015e+00 1.0101350401724840e+01 -1 -1 -1
1358 453 4 -8.1999999999999995e-01 4.1089497111775497e+00 1.2768927069002394e+00 4.8699030564610984e-01 0 -1 2
1052 351 4 -8.1999999999999995e-01 6.5547927525648007e+00 3.8420703994217735e+00 8.9928335370677370e+00 -1 0 0
1053 351 3 4.0999999999999998e-01 5.9069009785922288e+00 3.2081893262005958e+00 9.4195164264069060e+00 -1 0 0
6757 2253 3 4.0999999999999998e-01 6.3548256979942552e+00 8.5174526251583327e+00 1.0294464646118465e+01 0 2 1
3817 1273 3 4.0999999999999998e-01 2.4486960226285079e+00 9.4073772536387921e+00 6.8634318152372069e+00 1 0 0
1742 581 4 -8.1999999999999995e-01 8.1518446573847356e+00 1.0433440079802955e+01 7.8815973171867730e+00 1 0 0
2791 931 3 4.0999999999999998e-01 4.8563630766870469e+00 7.8743698805850775e+00 1.3042145661498948e+01 0 2 -1
4511 1504 4 -8.1999999999999995e-01 2.4096325438687516e+00 9.9242576492443402e-01 1.5926638201170636e+01 -1 0 1
1552 518 3 4.0999999999999998e-01 2.9993972405557399e+00 6.4636894038311266e-01 1.2626902631658952e+01 1 -1 0
5876 1959 4 -8.1999999999999995e-01 7.0844980132484525e-01 4.7060942357447360e+00 1.1366054592677731e+01 -2 0 -1
6951 2317 3 4.0999999999999998e-01 4.5020517605569799e-01 6.2634126286106691e+00 2.0262363983181185e+01 1 -1 1
782 261 4 -8.1999999999999995e-01 1.8949629294453505e+00 3.7822564863772512e+00 1.3624708480091394e+01 -1 1 2
285 95 3 4.0999999999999998e-01 2.1281781541540998e+00 5.1595897076533745e+00 1.7558927788242912e+01 0 -1 -1
2877 959 3 4.0999999999999998e-01 1.9076188232082858e-01 7.9725491986089496e+00 1.0813285633776772e+01 1 1 0
829 277 3 4.0999999999999998e-01 7.5838197506070681e+00 4.9083188212430837e+00 1.2883725903419931e+01 0 0 0
783 261 3 4.0999999999999998e-01 2.8324284281050245e+00 4.1214148897928453e+00 1.3797287256458352e+01 -1 1 2
283 95 3 4.0999999999999998e-01 1.2270210977550216e+00 4.9392553973172157e+00 1.8906746623461935e+01 0 -1 -1
2942 981 4 -8.1999999999999995e-01 3.8356616780731789e+00 5.7487363863613758e+00 2.0368958176564909e+01 1 -1 0
3772 1258 3 4.0999999999999998e-01 4.3035432102545785e+00 4.9464699103617749e+00 1.7857526183869798e+01 0 0 0
1553 518 4 -8.1999999999999995e-01 2.1418855417113218e+00 1.1007106941711144e+00 1.3063929159632769e+01 1 -1 0
1913 638 4 -8.1999999999999995e-01 2.0572198127184844e+00 1.9233232904591346e+00 1.8604267203636212e+01 -2 0 1
2556 852 3 4.0999999999999998e-01 3.6307832509634803e+00 1.0562466961901702e+01 2.0587373049253312e+01 1 1 0
4512 1504 3 4.0999999999999998e-01 1.3997243885277557e+00 1.0958943692517462e+00 1.5900592936125721e+01 -1 0 1
5939 1980 4 -8.1999999999999995e-01 5.3749424030824278e+00 8.0784438604477664e+00 1.9666140608981880e+01 0 1 0
5940 1980 3 4.0999999999999998e-01 4.8534095661386552e+00 7.2485966772093056e+00 1.9900807246797044e+01 0 1 0
2876 959 4 -8.1999999999999995e-01 8.9614507657384079e-01 8.1127038234457149e+00 1.1511945401500043e+01 1 1 0
6369 2123 3 4.0999999999999998e-01 9.9971313456556619e+00 1.4738777503895695e+00 1.8866302565960314e+01 -1 1 1
831 277 3 4.0999999999999998e-01 7.8375994179059081e+00 3.4234617081293828e+00 1.3880132068484343e+01 0 0 0
2503 835 3 4.0999999999999998e-01 9.0368354057302209e+00 1.0404881589624310e+01 1.4265363977047897e+01 -1 0 1
781 261 3 4.0999999999999998e-01 2.0005881286622942e+00 2.7575309495724918e+00 1.3545883051699599e+01 -1 1 2
6121 2041 3 4.0999999999999998e-01 7.6760045810502744e+00 6.3107854371060599e+00 1.1078668714587682e+01 -1 0 0
3902 1301 4 -8.1999999999999995e-01 6.7535425800174602e+00 6.7626000422280885e+00 1.7668686174404584e+01 1 0 -1
7082 2361 4 -8.1999999999999995e-01 2.8037304530514846e+00 3.6735127167249393e-01 2.0768277808185111e+01 2 -1 0
4398 1466 3 4.0999999999999998e-01 9.6435866031372353e+00 3.6308813360808454e+00 1.8417773680655806e+01 1 0 1
2990 997 4 -8.1999999999999995e-01 8.3778945416503170e+00 1.7926679713507356e+00 1.4033640345629836e+01 -2 0 3
7083 2361 3 4.0999999999999998e-01 2.4138722164557525e+00 9.9086181755496994e-01 2.0046534006237824e+01 2 -1 0
2347 783 3 4.0999999999999998e-01 7.3123785066238005e+00 4.0794627648159416e+00 1.9960207705240780e+01 0 3 1
2875 959 3 4.0999999999999998e-01 1.6632249864564048e+00 7.4241504575058093e+00 1.1330833408044981e+01 1 1 0
4940 1647 4 -8.1999999999999995e-01 8.6381791337955893e-01 4.6930285776068468e+00 1.5871992506502997e+01 1 -2 -1
1554 518 3 4.0999999999999998e-01 1.2452208053666660e+00 8.8625080788689603e-01 1.2545056747069188e+01 1 -1 0
6367 2123 3 4.0999999999999998e-01 8.6220172194610178e+00 1.2982415517005639e+00 1.9819577757319983e+01 -1 1 1
5877 1959 3 4.0999999999999998e-01 1.1992142451743906e+00 4.3595963632108186e+00 1.2195667034270292e+01 -2 0 -1
104 35 4 -8.1999999999999995e-01 7.9638566921992027e+00 9.4597191121899673e+00 1.8200025026267951e+01 1 0 0
127 43 3 4.0999999999999998e-01 7.7902876353578447e+00 5.7334941002682829e+00 1.4638958885293503e+01 -1 0 -1
4397 1466 4 -8.1999999999999995e-01 1.0472351485446737e+01 3.2018219876677065e+00 1.7928757800423359e+01 1 0 1
5875 1959 3 4.0999999999999998e-01 1.4348501415351733e+00 5.3555540051950929e+00 1.0925756094084853e+01 -2 0 -1
4941 1647 3 4.0999999999999998e-01 7.0269138367173389e-01 5.7214736086832030e+00 1.5695299412403969e+01 1 -2 -1
6357 2119 3 4.0999999999999998e-01 4.4731287977650949e+00 5.4594870574484915e+00 1.4039012543394769e+01 1 -1 -1
103 35 3 4.0999999999999998e-01 7.3187260065665978e+00 1.0099987182051148e+01 1.7714304179661479e+01 1 0 0
6122 2041 4 -8.1999999999999995e-01 7.9785508691581466e+00 5.3172821569602950e+00 1.0973505294147182e+01 -1 0 0
2792 931 4 -8.1999999999999995e-01 4.1531663120645810e+00 7.1632976374919881e+00 1.3099283705664037e+01 0 2 -1
4459 1487 3 4.0999999999999998e-01 5.9766904867410560e+00 4.0126132517316265e-01 1.5527867908704239e+01 1 0 0
4132 1378 3 4.0999999999999998e-01 5.9325089088694458e+00 9.8521583276973264e+00 1.3835928089423030e+01 -1 1 1
128 43 4 -8.1999999999999995e-01 7.7766880350568535e+00 6.7222972926013860e+00 1.5033721944321080e+01 -1 0 -1
284 95 4 -8.1999999999999995e-01 2.1368507459901736e+00 4.7178955931151698e+00 1.8467411088999409e+01 0 -1 -1
6630 2210 3 4.0999999999999998e-01 4.4673362041022147e+00 1.0217096790850790e+00 1.1350658471140962e+01 1 0 0
6687 2229 3 4.0999999999999998e-01 8.0383725656112990e+00 5.2471271992876840e+00 1.8401820621165875e+01 3 2 -1
4343 1448 4 -8.1999999999999995e-01 2.8562558584625357e+00 6.3006806586514044e+00 1.0752305595803787e+01 1 1 -1
4342 1448 3 4.0999999999999998e-01 3.4344773005344242e+00 6.5301236658537576e+00 1.1627046695165953e+01 1 1 -1
830 277 4 -8.1999999999999995e-01 7.3905207718484469e+00 4.3626746534623315e+00 1.3743973203571880e+01 0 0 0
1914 638 3 4.0999999999999998e-01 2.4589628478579586e+00 1.5796132947117030e+00 1.7748341225414634e+01 -2 0 1
4134 1378 3 4.0999999999999998e-01 6.8747953142803961e+00 8.4540958998101523e+00 1.4058123042855819e+01 -1 1 1
3773 1258 4 -8.1999999999999995e-01 4.9473317858077044e+00 5.0144374882439955e+00 1.7067567275108246e+01 0 0 0
1601 534 4 -8.1999999999999995e-01 1.3546374356699076e+00 9.2310745442686422e+00 1.8591086278016057e+01 3 -1 0
919 307 3 4.0999999999999998e-01 9.4152471639820359e+00 7.9095557559249563e-01 1.1612798792368945e+01 0 0 1
6368 2123 4 -8.1999999999999995e-01 9.6306056641963398e+00 1.1705499312164849e+00 1.9811057781356244e+01 -1 1 1
6719 2240 4 -8.1999999999999995e-01 6.9858346516892551e+00 9.8069731275867267e-01 2.0171894848931991e+01 2 1 1
5422 1808 3 4.0999999999999998e-01 8.7827841140233343e+00 8.2223912222332149e+00 1.0715034740242661e+01 0 -1 -1
105 35 3 4.0999999999999998e-01 7.8112288209968765e+00 8.5626452974843836e+00 1.7816512985913977e+01 1 0 0
6414 2138 3 4.0999999999999998e-01 5.1584210985241494e+00 2.7995905806389341e+00 1.3876689152969329e+01 1 0 -3
4510 1504 3 4.0999999999999998e-01 2.6613986553968263e+00 8.0247282238538631e-01 1.4957005049162062e+01 -1 0 1
6685 2229 3 4.0999999999999998e-01 8.9826549922520211e+00 5.5555483238518120e+00 1.9593439761724738e+01 3 2 -1
4133 1378 4 -8.1999999999999995e-01 6.2410233593501649e+00 8.9766200641245639e+00 1.3410569972502032e+01 -1 1 1
2348 783 4 -8.1999999999999995e-01 6.7701730793816264e+00 3.5817539947762920e+00 2.0753224255086526e+01 0 3 1
4939 1647 3 4.0999999999999998e-01 1.3667699756377116e+00 4.2695447240873161e+00 1.5059378095966364e+01 1 -2 -1
6758 2253 4 -8.1999999999999995e-01 6.9626309464638538e+00 7.9941856939041438e+00 1.0962581706587194e+01 0 2 1
6412 2138 3 4.0999999999999998e-01 5.1160395057697778e+00 1.2174212594924250e+00 1.3283695295591974e+01 1 0 -3
3729 1243 3 4.0999999999999998e-01 8.8145963346154570e+00 7.7114790652336733e+00 2.0699474475849417e+01 0 0 0
3901 1301 3 4.0999999999999998e-01 6.2380978676918177e+00 7.4468820123823720e+00 1.8173564937012909e+01 1 0 -1
5491 1831 3 4.0999999999999998e-01 4.3409521704278307e+00 1.0059403692394635e+01 1.0704908334218276e+01 0 -1 1
3831 1277 3 4.0999999999999998e-01 6.7263106730111213e+00 8.2813106522863400e+00 2.0757517374237015e+01 0 1 -2
2989 997 3 4.0999999999999998e-01 8.4812744448980908e+00 1.4724959793928574e+00 1.3064434703633479e+01 -2 0 3
2941 981 3 4.0999999999999998e-01 3.1421573529091047e+00 5.2440703390836871e+00 1.9769735923818814e+01 1 -1 0
7246 2416 3 4.0999999999999998e-01 2.6276838316715003e+00 9.4100907680943919e+00 1.5351128741143748e+01 1 0 1
3774 1258 3 4.0999999999999998e-01 4.5653259905857864e+00 4.6598168674716378e+00 1.6146606365049195e+01 0 0 0
5938 1980 3 4.0999999999999998e-01 4.7465950163079524e+00 8.8770198788239867e+00 1.9805954926433234e+01 0 1 0
6355 2119 3 4.0999999999999998e-01 5.6225485835284541e+00 4.4052327857099174e+00 1.4091477875492712e+01 1 -1 -1
1256 419 4 -8.1999999999999995e-01 9.5653986955330890e+00 8.7169818579781619e+00 1.4425507760327902e+01 0 0 0
7248 2416 3 4.0999999999999998e-01 1.5905993284911895e+00 8.1411973607974399e+00 1.5359964009911499e+01 1 0 1
3903 1301 3 4.0999999999999998e-01 6.1022865965410418e+00 6.0056501047752402e+00 1.7401692426769330e+01 1 0 -1
6686 2229 4 -8.1999999999999995e-01 8.5079568574354507e+00 4.7442168460539298e+00 1.9157982380057280e+01 3 2 -1
6413 2138 4 -8.1999999999999995e-01 5.6069337145774876e+00 1.8868273190559004e+00 1.3936415363444928e+01 1 0 -3
1602 534 3 4.0999999999999998e-01 1.1876820887131294e+00 8.6195176874779822e+00 1.9419831485810498e+01 3 -1 0
2793 931 3 4.0999999999999998e-01 3.5302863793031234e+00 7.4727245507914803e+00 1.3838393513342426e+01 0 2 -1
3728 1243 4 -8.1999999999999995e-01 9.5680274075450047e+00 7.0087241859486653e+00 2.0440450004912325e+01 0 0 0
6629 2210 4 -8.1999999999999995e-01 4.5772560230320583e+00 3.0715958713398467e-01 1.2058442095423644e+01 1 0 0
6759 2253 3 4.0999999999999998e-01 6.7609209175686740e+00 8.3198506704363915e+00 1.1923975887268263e+01 0 2 1
5977 1993 3 4.0999999999999998e-01 9.7542559372217728e+00 2.4586532999952611e+00 1.4773908581211948e+01 -1 0 3
129 43 3 4.0999999999999998e-01 7.4960967872311102e+00 6.5863156201579374e+00 1.6001576102974944e+01 -1 0 -1
2991 997 3 4.0999999999999998e-01 7.3685166213186086e+00 1.4921296210998998e+00 1.4276902145940850e+01 -2 0 3
1912 638 3 4.0999999999999998e-01 2.1068104838500226e+00 2.9354947473573469e+00 1.8554679611282776e+01 -2 0 1
1257 419 3 4.0999999999999998e-01 8.8624092160946493e+00 8.0113374032393772e+00 1.4699671920148731e+01 0 0 0
7247 2416 4 -8.1999999999999995e-01 2.5135308846329747e+00 8.4462014050283525e+00 1.5084476074893207e+01 1 0 1
5423 1808 4 -8.1999999999999995e-01 9.7806895720587406e+00 8.4178190063495215e+00 1.0894265385013314e+01 0 -1 -1
6356 2119 4 -8.1999999999999995e-01 4.6299359123161521e+00 4.5018958177979398e+00 1.4266584229160001e+01 1 -1 -1
5394 1798 3 4.0999999999999998e-01 3.1150221489224600e-01 2.0809020826947546e+00 1.8692316335604854e+01 0 0 -1
1600 534 3 4.0999999999999998e-01 2.1977521277477816e+00 9.7741182468799153e+00 1.8768319569252888e+01 3 -1 0
4840 1614 3 4.0999999999999998e-01 9.4694702298354958e+00 4.6349982203366320e+00 1.0784868362932528e+01 1 -1 1
1255 419 3 4.0999999999999998e-01 1.0066181303258917e+01 8.4893818712576401e+00 1.3528022594719078e+01 0 0 0
6718 2240 3 4.0999999999999998e-01 7.0370974602821867e+00 1.9907143566850860e+00 2.0411789027859143e+01 2 1 1
2555 852 4 -8.1999999999999995e-01 3.5186345173623912e+00 1.0483943175101029e+01 1.9614028318262328e+01 1 1 0
3546 1182 3 4.0999999999999998e-01 2.5473396811665925e+00 9.7384518975231007e+00 1.1865423942935902e+01 -1 1 0
920 307 4 -8.1999999999999995e-01 8.9708672969014742e+00 1.3727426896486050e+00 1.0855576949152420e+01 0 0 1
1557 519 3 4.0999999999999998e-01 1.0301982327724160e+01 9.3280355936416868e+00 1.6022187708256546e+01 -1 -1 1
6150 2050 3 4.0999999999999998e-01 1.0424526568971723e+01 7.3854288283866500e+00 1.9004566968059919e+01 1 1 0
3829 1277 3 4.0999999999999998e-01 7.8619320517575604e+00 9.5076750399824803e+00 2.0901984762389262e+01 0 1 -2
4841 1614 4 -8.1999999999999995e-01 1.0167577481457656e+01 3.8508424005310955e+00 1.0591721913762449e+01 1 -1 1
4842 1614 3 4.0999999999999998e-01 9.6410309185151490e+00 3.0121924511441192e+00 1.0806990802836951e+01 1 -1 1
3727 1243 3 4.0999999999999998e-01 1.0421301595534075e+01 7.2953234184875839e+00 2.0997670543023411e+01 0 0 0
5372 1791 4 -8.1999999999999995e-01 8.5957567078337789e+00 8.0833590192501852e+00 2.3541978412086916e+01 0 1 -2
1181 394 4 -8.1999999999999995e-01 6.4551116878279995e+00 3.3036014169763401e+00 2.6358387396162211e+01 0 -1 -1
882 294 3 4.0999999999999998e-01 2.5290001017157371e-01 1.2898594774009406e+00 2.1714825978099526e+01 1 -1 0
5566 1856 3 4.0999999999999998e-01 9.8576290961374813e+00 5.4007742974954480e+00 2.3684005029244044e+01 1 1 0
3756 1252 3 4.0999999999999998e-01 1.0426749926688840e+01 9.7468926304148269e+00 2.9736073097263105e+01 1 0 -1
1077 359 3 4.0999999999999998e-01 5.4895128169688387e+00 8.2478414347305478e+00 3.0390980805959966e+01 1 0 1
2977 993 3 4.0999999999999998e-01 6.9002646500020095e+00 3.0660098988176308e+00 2.9620737670913798e+01 0 2 -1
5567 1856 4 -8.1999999999999995e-01 8.9451483441667516e+00 5.0902471471476094e+00 2.4109382902636188e+01 1 1 0
2978 993 4 -8.1999999999999995e-01 7.7261582337297261e+00 3.7643213151147203e+00 2.9760707297764725e+01 0 2 -1
3156 1052 3 4.0999999999999998e-01 7.6832646264481825e+00 7.4340019111999061e+00 3.0437121820091900e+01 -1 1 -3
2708 903 4 -8.1999999999999995e-01 4.6542626675676395e+00 4.6862443627475558e+00 2.2596120762060689e+01 1 2 1
503 168 4 -8.1999999999999995e-01 5.5395697971358837e-01 9.8569245325615960e+00 2.8153981229998138e+01 0 1 0
3396 1132 3 4.0999999999999998e-01 9.8897377215606586e+00 1.2098059176084555e+00 2.1460212580452151e+01 1 0 -1
6398 2133 4 -8.1999999999999995e-01 3.7584768414148102e+00 7.9148571004507398e+00 2.4495242256899154e+01 0 1 0
6219 2073 3 4.0999999999999998e-01 5.6359860973676437e+00 1.0536296980264556e+01 2.3964174383896435e+01 0 -1 0
5829 1943 3 4.0999999999999998e-01 2.7262877172102260e+00 2.7430677976860114e+00 2.4359007916364707e+01 0 1 0
2775 925 3 4.0999999999999998e-01 9.8431026756856124e+00 1.0489843231184851e+01 2.1045545975737323e+01 2 0 -2
3803 1268 4 -8.1999999999999995e-01 4.1195026098690617e+00 5.6969174160954887e+00 3.0484410336111416e+01 1 2 0
1793 598 4 -8.1999999999999995e-01 2.0523317665933662e+00 2.6488372878619804e+00 2.7912676444866488e+01 0 1 -1
3584 1195 4 -8.1999999999999995e-01 7.7486445732512710e+00 1.1262752795090756e+00 2.6624255093589966e+01 0 -1 0
3003 1001 3 4.0999999999999998e-01 9.7967248861988896e+00 3.2166754005617255e+00 2.7454134380073015e+01 0 0 -1
3190 1064 3 4.0999999999999998e-01 1.8966680634600612e+00 5.9917370538383556e+00 2.6208631603702802e+01 0 3 -2
5864 1955 4 -8.1999999999999995e-01 7.9488964842493139e+00 2.6029023909501596e+00 2.3109851460441583e+01 -1 1 1
1116 372 3 4.0999999999999998e-01 6.3857882412604960e-01 1.6724423690140706e+00 3.0729086745709836e+01 1 1 0
4982 1661 4 -8.1999999999999995e-01 4.0626448618603952e+00 8.7080402699332744e+00 2.7743974525263248e+01 1 1 1
6397 2133 3 4.0999999999999998e-01 4.4771828096570960e+00 8.6993753157133362e+00 2.4580241295836046e+01 0 1 0
5350 1784 3 4.0999999999999998e-01 7.8911096065994601e-01 9.3597448898542961e+00 2.6403003153214460e+01 2 2 1
10 4 3 4.0999999999999998e-01 3.3312274024304700e+00 1.5473795439760252e+00 2.2313932249070550e+01 -1 1 -1
5827 1943 3 4.0999999999999998e-01 1.9249713795229195e+00 3.9489858509720395e+00 2.5181848562161644e+01 0 1 0
5627 1876 4 -8.1999999999999995e-01 6.2745468255995371e+00 5.4258883195029917e+00 2.4554781690022466e+01 3 -1 0
4383 1461 3 4.0999999999999998e-01 2.4354990646871095e+00 7.2421536093964205e+00 2.1569589318019492e+01 1 0 0
2828 943 4 -8.1999999999999995e-01 6.1458085796812885e+00 9.2249460434867114e-01 2.4310223678201041e+01 0 2 0
3925 1309 3 4.0999999999999998e-01 6.4441762696427842e+00 7.2713396226682487e+00 2.8611646810861696e+01 2 0 0
2979 993 3 4.0999999999999998e-01 7.6589622538830193e+00 4.2229447720540829e+00 3.0702112507185149e+01 0 2 -1
2779 927 3 4.0999999999999998e-01 9.9807849295612989e+00 3.6018574099023968e+00 3.1173046342665177e+01 0 -1 0
4489 1497 3 4.0999999999999998e-01 5.3706950657709296e+00 3.9756272274770527e-01 2.5710172176600860e+01 0 -1 0
863 288 4 -8.1999999999999995e-01 6.1906915434703063e+00 7.2907397617050469e+00 2.6928564931591765e+01 1 0 0
6844 2282 3 4.0999999999999998e-01 4.9744588161593581e+00 3.0297150378963646e+00 2.8804779275239174e+01 -1 0 0
6453 2151 3 4.0999999999999998e-01 1.3248351575056738e+00 6.9261640752570486e+00 2.8249810484042591e+01 1 1 1
6845 2282 4 -8.1999999999999995e-01 5.4358044257988256e+00 2.5017322285575427e+00 2.9530735181854066e+01 -1 0 0
1180 394 3 4.0999999999999998e-01 5.4277482583131995e+00 3.5914424372347065e+00 2.6617684654858195e+01 0 -1 -1
2707 903 3 4.0999999999999998e-01 4.4646398158792957e+00 3.6943107430890110e+00 2.2711737854439800e+01 1 2 1
5863 1955 3 4.0999999999999998e-01 7.6852671663805037e+00 3.0338587124895309e+00 2.2177475184071692e+01 -1 1 1
3585 1195 3 4.0999999999999998e-01 8.0910217452598410e+00 1.3571909306594525e+00 2.7607125923467667e+01 0 -1 0
3002 1001 4 -8.1999999999999995e-01 9.0183398721219028e+00 3.9409334820660757e+00 2.7435683890264343e+01 0 0 -1
2369 790 4 -8.1999999999999995e-01 4.1888016326943136e+00 4.1238548674028053e+00 2.7717578697592568e+01 1 0 1
4983 1661 3 4.0999999999999998e-01 3.9920835209061245e+00 9.6250390681984079e+00 2.7197739212252092e+01 1 1 1
3802 1268 3 4.0999999999999998e-01 4.1744645701860605e+00 4.6798976392216973e+00 3.0346869892081060e+01 1 2 0