LAMMPS data file via write_data, version 5 Jun 2019, timestep = 18000000

7349 atoms
5 atom types
4899 bonds
2 bond types
2451 angles
2 angle types
1 impropers
1 improper types

1.5519297081455363e-01 4.1845807029189409e+01 xlo xhi
1.5469297081455124e-01 4.1845307029189406e+01 ylo yhi
1.5469297081455124e-01 4.1845307029189406e+01 zlo zhi

#Masses
#
#1 12.01
#2 40.08
#3 1.01
#4 16
#5 16
#
#Bond Coeffs # harmonic
#
#1 20.4246 1.3042
#2 22.965 1.012

Atoms # full

3270 1090 3 4.0999999999999998e-01 3.0586413440506464e+00 3.1065701318155106e+00 3.7576608800985287e+00 -1 1 1
6506 2169 4 -8.1999999999999995e-01 5.2856040531375861e+00 9.1234696826983708e+00 2.4632154740288774e+00 3 1 4
482 161 4 -8.1999999999999995e-01 4.5570782255857267e+00 3.1194347683815042e+00 9.6835179470813038e-01 0 -1 0
2266 756 3 4.0999999999999998e-01 6.8725673699417342e+00 5.5475176299886559e+00 7.5523096042607500e+00 4 -2 -1
1114 372 3 4.0999999999999998e-01 1.0096584426145204e+01 2.3520143472340536e+00 5.4804976565249337e+00 -3 -1 0
6030 2010 3 4.0999999999999998e-01 7.8132787961345871e+00 9.2940432374590962e+00 4.8516038647402109e+00 -2 5 -1
4743 1581 3 4.0999999999999998e-01 5.0412255728742821e+00 6.3214041084766750e+00 1.1836768262430986e+00 0 0 1
483 161 3 4.0999999999999998e-01 4.5189600215170334e+00 3.9192009924590430e+00 1.6996675703796509e+00 0 -1 0
5072 1691 4 -8.1999999999999995e-01 2.5492748215253860e+00 6.3179321146861547e+00 3.8417240612658660e-01 4 3 1
5955 1985 3 4.0999999999999998e-01 9.5661943318909604e+00 2.5762266090346014e-01 9.8691798662766139e+00 3 1 -2
5812 1938 3 4.0999999999999998e-01 2.9956037174868948e+00 9.4494603411240377e+00 9.2344051166480643e+00 4 1 1
701 234 4 -8.1999999999999995e-01 2.6301399272966943e+00 1.4601074980265054e+00 7.0215756494041770e-01 -1 3 6
1593 531 3 4.0999999999999998e-01 5.3612656791298119e-01 7.8395730507792951e+00 3.8157085407910114e+00 6 -3 -1
2847 949 3 4.0999999999999998e-01 7.2190228275750918e+00 2.0360549573043065e+00 4.0657883699607007e+00 -1 3 4
6734 2245 4 -8.1999999999999995e-01 7.4224671633618975e+00 1.0101745553794276e+01 1.0331814359809352e+01 3 1 5
3268 1090 3 4.0999999999999998e-01 1.5119977201623640e+00 3.1445113945336884e+00 3.1595822396414626e+00 -1 1 1
4449 1483 3 4.0999999999999998e-01 8.7539584885286015e+00 4.3977815779898899e+00 9.2606942829159440e+00 1 -1 3
2268 756 3 4.0999999999999998e-01 7.1524869696814868e+00 7.2009841789595246e+00 7.8123284820361993e+00 4 -2 -1
2846 949 4 -8.1999999999999995e-01 6.4656908856873736e+00 1.4573522272453763e+00 4.5173033151570730e+00 -1 3 4
5616 1872 3 4.0999999999999998e-01 9.1832136833485087e+00 5.5999302495124796e+00 1.4182525431667987e+00 -1 -1 5
2909 970 4 -8.1999999999999995e-01 8.4670441634778228e+00 8.2954277071309743e+00 7.9169932013774282e+00 1 -1 0
6002 2001 4 -8.1999999999999995e-01 2.4220608224655793e-01 4.3487304325310774e+00 2.8973145875366133e+00 3 3 1
4638 1546 3 4.0999999999999998e-01 7.9211556709226949e+00 2.5718266820956601e+00 2.1747422917587231e+00 -3 0 0
2264 755 4 -8.1999999999999995e-01 4.3464242821574590e+00 4.3693293681174801e+00 3.2950303263445777e+00 -1 -2 4
1876 626 3 4.0999999999999998e-01 5.7901324603525355e+00 1.0319380688546486e+01 1.0324585147565202e+00 -2 3 -1
6247 2083 3 4.0999999999999998e-01 5.6583537570753766e+00 3.1882831937461384e+00 6.8379634277756933e+00 0 0 -3
1458 486 3 4.0999999999999998e-01 3.5078602206144840e+00 6.6385465999839255e+00 8.3415767536453842e+00 3 0 1
6248 2083 4 -8.1999999999999995e-01 5.1699168208107267e+00 3.2761855139080560e+00 5.8928172090220485e+00 0 0 -3
6417 2139 3 4.0999999999999998e-01 6.5151977932160419e+00 7.2926373237451403e-01 1.5560425552613752e+00 3 -2 3
1591 531 3 4.0999999999999998e-01 3.6091423555572488e-01 8.6900058453477662e+00 5.2201994375017113e+00 6 -3 -1
4447 1483 3 4.0999999999999998e-01 9.2971550451467575e+00 2.9452860258134290e+00 9.9731360514163168e+00 1 -1 3
5753 1918 4 -8.1999999999999995e-01 9.2889459222817692e+00 5.2551983260574540e+00 7.6177277546400539e+00 -4 -2 3
2782 928 3 4.0999999999999998e-01 2.4564778627277541e+00 7.2970586809358355e+00 3.5491665579496918e+00 -3 -3 1
1457 486 4 -8.1999999999999995e-01 3.8062553526535292e+00 6.1111372383036144e+00 7.5592533962678488e+00 3 0 1
6379 2127 3 4.0999999999999998e-01 1.0244356721689289e+01 1.3331482817809153e+00 2.6582396647819997e+00 1 3 2
2223 741 3 4.0999999999999998e-01 6.6574618761029747e+00 5.2175616245139409e+00 3.3675796315734203e+00 0 3 4
3394 1132 3 4.0999999999999998e-01 3.5278006135671820e+00 6.5404950904514048e-01 8.1056929621794040e+00 -2 0 0
2783 928 4 -8.1999999999999995e-01 3.2483066602885216e+00 6.7645318983296958e+00 3.0102272706197217e+00 -3 -3 1
5422 1808 3 4.0999999999999998e-01 2.0237525307825890e+00 6.8175815249667977e+00 9.8462213562634400e+00 1 -3 0
5023 1675 3 4.0999999999999998e-01 5.1605406143747610e+00 8.8039806520373514e+00 5.9749257561587585e+00 0 -1 0
4636 1546 3 4.0999999999999998e-01 9.0243837569729113e+00 3.5155108401507360e+00 3.1519411341433110e+00 -3 0 0
2910 970 3 4.0999999999999998e-01 9.4195832895845424e+00 8.1533594965890845e+00 7.4217879169318994e+00 1 -1 0
3396 1132 3 4.0999999999999998e-01 5.0869142484751126e+00 9.4618206382748415e-01 8.2306444780120795e+00 -2 0 0
6071 2024 4 -8.1999999999999995e-01 9.7615116370771038e-01 1.0554691706635612e+01 1.9506408194554978e+00 -3 2 6
6028 2010 3 4.0999999999999998e-01 9.2176449185076539e+00 8.6333974903604691e+00 4.1925168515582598e+00 -2 5 -1
4347 1449 3 4.0999999999999998e-01 1.0109293185426546e+01 6.5959036831048232e+00 3.7902084346600349e+00 5 -5 0
4346 1449 4 -8.1999999999999995e-01 9.3452448704473436e+00 6.9585911004184871e+00 4.3715113922619890e+00 5 -5 0
4696 1566 3 4.0999999999999998e-01 1.9963333730605464e+00 1.2531384776829511e+00 6.2375991605080801e+00 3 -1 2
3395 1132 4 -8.1999999999999995e-01 4.2411992490111317e+00 9.5265991957873164e-01 8.7412993849463323e+00 -2 0 0
6764 2255 4 -8.1999999999999995e-01 6.2172367056945319e+00 3.1537236262719341e+00 8.4932143286554744e+00 3 1 4
6415 2139 3 4.0999999999999998e-01 5.9503217216109663e+00 2.1177290153659127e+00 1.0403199311783116e+00 3 -2 3
5529 1843 3 4.0999999999999998e-01 2.9516353891428939e+00 8.1575584444845592e+00 5.0966716033547455e+00 -1 2 0
6507 2169 3 4.0999999999999998e-01 5.9208076127742348e+00 8.3103235898543790e+00 2.5365370541733498e+00 3 1 4
838 280 3 4.0999999999999998e-01 4.9168023189257912e+00 1.0259848103601286e+01 3.6352700029969984e+00 0 -1 1
5528 1843 4 -8.1999999999999995e-01 3.6757335597318193e+00 8.3149136893959223e+00 5.8386926337789973e+00 -1 2 0
6505 2169 3 4.0999999999999998e-01 4.3236203764194494e+00 8.8428898128990276e+00 2.4394116464213731e+00 3 1 4
6658 2220 3 4.0999999999999998e-01 6.3302733641044053e+00 6.7134647430388741e+00 1.0230687631496943e+01 0 1 0
1996 666 3 4.0999999999999998e-01 7.3103382851026755e-01 5.1694133478623829e+00 7.1083760238825882e+00 0 -1 -2
5527 1843 3 4.0999999999999998e-01 3.5190551110727304e+00 7.4856008979978634e+00 6.5544429516231366e+00 -1 2 0
2845 949 3 4.0999999999999998e-01 6.1402935413905668e+00 7.8503749871069661e-01 3.7618891955910501e+00 -1 3 4
6590 2197 4 -8.1999999999999995e-01 4.1715336128254199e+00 3.1265069377050434e+00 1.0278069665807664e+01 1 -4 -1
2263 755 3 4.0999999999999998e-01 4.5302727622963248e+00 4.1775865967373127e+00 4.2622173640791097e+00 -1 -2 4
5112 1704 3 4.0999999999999998e-01 6.6945002812828394e+00 4.5259414788396146e-01 5.8963588144342456e+00 1 4 0
2267 756 4 -8.1999999999999995e-01 6.4088445695503182e+00 6.4233077877173885e+00 7.7712802288796157e+00 4 -2 -1
5110 1704 3 4.0999999999999998e-01 7.1637819010852049e+00 1.8464278777035431e-01 7.5463829999888326e+00 1 4 0
2265 755 3 4.0999999999999998e-01 3.9764188498467945e+00 5.3431260563822418e+00 3.2561111149260480e+00 -1 -2 4
5024 1675 4 -8.1999999999999995e-01 6.1301474075029754e+00 9.2199956722882117e+00 5.9063019511408150e+00 0 -1 0
5423 1808 4 -8.1999999999999995e-01 1.5680875806565531e+00 7.5636001964198218e+00 9.2844432619181561e+00 1 -3 0
5740 1914 3 4.0999999999999998e-01 3.4322189787373052e+00 3.7876585992103657e+00 5.8509736054339134e+00 3 -1 -2
4741 1581 3 4.0999999999999998e-01 6.7513661304113368e+00 5.9064476363628451e+00 1.3109122684412422e+00 0 0 1
5741 1914 4 -8.1999999999999995e-01 2.6115387241779464e+00 4.2918206105374592e+00 6.2382583944144541e+00 3 -1 -2
5754 1918 3 4.0999999999999998e-01 9.5276965122044484e+00 4.8868833482797980e+00 6.6865896550544992e+00 -4 -2 3
4345 1449 3 4.0999999999999998e-01 8.4938295204035761e+00 6.3323070771047929e+00 4.2993486142316311e+00 5 -5 0
2221 741 3 4.0999999999999998e-01 6.8513330116629483e+00 4.8593881944498278e+00 4.8962633438800545e+00 0 3 4
5025 1675 3 4.0999999999999998e-01 6.6451940441041195e+00 8.7522355081555840e+00 6.6871465356875319e+00 0 -1 0
5424 1808 3 4.0999999999999998e-01 7.2221312475977206e-01 7.2302840969853301e+00 8.8655431401028135e+00 1 -3 0
4448 1483 4 -8.1999999999999995e-01 8.5340791600330999e+00 3.6642243068524842e+00 9.8819678118801253e+00 1 -1 3
2784 928 3 4.0999999999999998e-01 3.0509037771914493e+00 6.4222040441530313e+00 2.0564715794295267e+00 -3 -3 1
4697 1566 4 -8.1999999999999995e-01 2.9556173737307532e+00 8.0103986775362912e-01 6.3309793434112835e+00 3 -1 2
5752 1918 3 4.0999999999999998e-01 9.5826135226633173e+00 6.2040768950117942e+00 7.7619958845319639e+00 -4 -2 3
2908 970 3 4.0999999999999998e-01 8.3978835472262698e+00 9.3087611702316959e+00 7.8867160405593575e+00 1 -1 0
702 234 3 4.0999999999999998e-01 3.3444018439824639e+00 2.1480559771622914e+00 9.7158611783210791e-01 -1 3 6
700 234 3 4.0999999999999998e-01 2.0388925064904133e+00 1.2438588949983962e+00 1.4880521607713748e+00 -1 3 6
6311 2104 4 -8.1999999999999995e-01 9.5799240338518228e+00 6.1136652794459356e-01 5.8245613167043615e+00 -2 0 -2
1456 486 3 4.0999999999999998e-01 4.8326957799021892e+00 6.1438017972730030e+00 7.4868533868526299e+00 3 0 1
4698 1566 3 4.0999999999999998e-01 3.7054455644089215e+00 1.3375475353533104e+00 5.8330568491335493e+00 3 -1 2
6765 2255 3 4.0999999999999998e-01 5.4291239328871361e+00 3.6443764965496208e+00 8.7502756979564484e+00 3 1 4
4742 1581 4 -8.1999999999999995e-01 5.9065316434508990e+00 6.1723810314294347e+00 1.7903544593313414e+00 0 0 1
6763 2255 3 4.0999999999999998e-01 6.9635648260504954e+00 3.3641745687716256e+00 9.2057246635162695e+00 3 1 4
3269 1090 4 -8.1999999999999995e-01 2.1812489061504468e+00 2.5725600100112120e+00 3.7475161126298158e+00 -1 1 1
6029 2010 4 -8.1999999999999995e-01 8.6584317994534743e+00 9.4777686537956249e+00 4.3037318700518696e+00 -2 5 -1
5742 1914 3 4.0999999999999998e-01 3.1766213810202260e+00 4.9330425449982753e+00 6.8701509352946841e+00 3 -1 -2
2222 741 4 -8.1999999999999995e-01 7.3317099528167811e+00 5.1089968834515895e+00 4.0661088458353003e+00 0 3 4
4637 1546 4 -8.1999999999999995e-01 8.7012662017683322e+00 2.5876523031394068e+00 2.8835264293348435e+00 -3 0 0
6416 2139 4 -8.1999999999999995e-01 6.7844637802516257e+00 1.6121881189728140e+00 1.1697391577724119e+00 3 -2 3
2659 887 3 4.0999999999999998e-01 1.4566029810596515e+00 1.2266599341023228e+00 1.0038867021437550e+01 2 -1 5
6249 2083 3 4.0999999999999998e-01 5.5783087074001525e+00 2.5514873174765085e+00 5.2508394026133249e+00 0 0 -3
6875 2292 4 -8.1999999999999995e-01 5.9782317982703603e-01 3.1453750735785907e-01 2.2583064478636619e+00 2 3 2
6089 2030 4 -8.1999999999999995e-01 4.8821591239783735e-01 2.0542439037264408e+00 5.8505790552786374e+00 0 2 2
6589 2197 3 4.0999999999999998e-01 4.1998978679294616e+00 2.2434761106882175e+00 9.7482085565409324e+00 1 -4 -1
4679 1560 4 -8.1999999999999995e-01 3.5235935361213357e+00 6.0638804758451679e+00 1.0431682749458828e+01 -1 -1 1
4678 1560 3 4.0999999999999998e-01 3.7162698533731438e+00 5.0834754791383778e+00 1.0245682447367145e+01 -1 -1 1
5607 1869 3 4.0999999999999998e-01 1.0488636278902428e+01 1.0090199078148668e+01 5.5492176834680214e+00 -3 -1 -1
5813 1938 4 -8.1999999999999995e-01 3.4503946619833550e+00 1.0366680997960605e+01 9.2528543178549167e+00 4 1 1
5615 1872 4 -8.1999999999999995e-01 8.8636905586230021e+00 5.7683195833589700e+00 4.4463982024483056e-01 -1 -1 5
1115 372 4 -8.1999999999999995e-01 1.0497571832524894e+01 3.2598802283355055e+00 5.2488013364523871e+00 -3 -1 0
1116 372 3 4.0999999999999998e-01 1.0327642412770739e+01 3.3711741010545775e+00 4.2473215233304984e+00 -3 -1 0
6090 2030 3 4.0999999999999998e-01 1.1106286043202331e+00 2.0423529802317502e+00 4.9714782009562377e+00 0 2 2
1592 531 4 -8.1999999999999995e-01 1.0708039464124715e+00 8.3018591536926216e+00 4.5815023572567997e+00 6 -3 -1
6660 2220 3 4.0999999999999998e-01 7.4417066778772298e+00 8.0382034785331129e+00 1.0058047215226489e+01 0 1 0
2196 732 3 4.0999999999999998e-01 9.9946428848272895e+00 7.1863139941771097e+00 1.0299844308262800e+01 2 3 -2
6088 2030 3 4.0999999999999998e-01 3.1962365250683245e-01 3.0122375222861466e+00 6.0135044416666759e+00 0 2 2
6735 2245 3 4.0999999999999998e-01 7.5048788257041643e+00 1.0547541822881463e+01 9.4729186278861288e+00 3 1 5
2660 887 4 -8.1999999999999995e-01 1.5006631287531120e+00 1.5510394900560698e-01 9.9345663900413630e+00 2 -1 5
2391 797 3 4.0999999999999998e-01 9.2528751273642200e+00 8.1908060755288119e+00 1.4884442436552366e+01 -4 4 2
898 300 3 4.0999999999999998e-01 8.2884128886613961e+00 3.5206985782871949e+00 1.1641674515498675e+01 1 3 2
453 151 3 4.0999999999999998e-01 9.5729566349323978e+00 1.0464166676881508e+01 1.2952890385257477e+01 -1 -3 1
1207 403 3 4.0999999999999998e-01 6.0453723789421749e+00 7.1547356703760805e+00 1.8367471277054729e+01 0 2 2
3837 1279 3 4.0999999999999998e-01 4.6749521769569018e+00 9.5757292762034822e+00 1.6592370073682467e+01 3 1 0
6345 2115 3 4.0999999999999998e-01 1.2108891515397897e+00 1.0146508454815455e+01 1.2493900958395621e+01 0 2 1
441 147 3 4.0999999999999998e-01 4.3091384833185078e+00 3.5732075933359404e+00 1.9014850905965567e+01 0 3 0
5877 1959 3 4.0999999999999998e-01 9.5492148501429153e+00 1.9264477235186588e+00 1.9155324643623544e+01 -3 4 1
6119 2040 4 -8.1999999999999995e-01 1.9905908485056978e+00 7.9464076340955669e+00 1.6519019562219157e+01 2 0 -2
2946 982 3 4.0999999999999998e-01 7.6505352844948717e+00 6.9849801791114077e+00 1.3492571442532332e+01 4 1 1
1209 403 3 4.0999999999999998e-01 6.0569439538780303e+00 5.5557696957967195e+00 1.8748531941790166e+01 0 2 2
5042 1681 4 -8.1999999999999995e-01 7.5663806163490763e+00 5.8203192871549652e+00 1.5174036440571697e+01 1 -1 0
6047 2016 4 -8.1999999999999995e-01 8.2657302098976047e+00 9.8472262057357778e+00 1.8368731570685696e+01 2 -2 -3
5041 1681 3 4.0999999999999998e-01 8.0358256801699426e+00 4.9583240114289033e+00 1.5364868750815326e+01 1 -1 0
5995 1999 3 4.0999999999999998e-01 9.4017638169407078e+00 6.8464839381048508e+00 1.7317940837049818e+01 -1 1 -1
5043 1681 3 4.0999999999999998e-01 8.0839530074427799e+00 6.4615213138013123e+00 1.5756409376320999e+01 1 -1 0
6445 2149 3 4.0999999999999998e-01 9.9573336007819890e-01 1.2798520921977590e+00 1.2120060835937315e+01 -3 4 1
6591 2197 3 4.0999999999999998e-01 4.6651897070850366e+00 3.1511418948425529e+00 1.1213794054286385e+01 1 -4 -1
1293 431 3 4.0999999999999998e-01 8.2414180715817764e+00 1.8837747228424875e+00 1.3433281003797688e+01 -1 -1 -1
440 147 4 -8.1999999999999995e-01 3.3036981793596585e+00 3.3687018574723870e+00 1.9010983010648602e+01 0 3 0
4604 1535 4 -8.1999999999999995e-01 8.7280876268482928e+00 3.5053979590834730e+00 1.5856457515145019e+01 -1 0 2
1785 595 3 4.0999999999999998e-01 7.3170148560362422e+00 2.6497233247268022e+00 1.6580833868774402e+01 -1 -2 3
1862 621 4 -8.1999999999999995e-01 3.8768927573050389e+00 6.3610588919353206e-01 1.3576650753174770e+01 -1 -4 1
439 147 3 4.0999999999999998e-01 2.9782487525077870e+00 3.4021757702129101e+00 1.9999387223540911e+01 0 3 0
6493 2165 3 4.0999999999999998e-01 6.4307377563001547e+00 3.3775385888259870e+00 1.8634594197004432e+01 3 -1 -2
4487 1496 4 -8.1999999999999995e-01 4.9540447285727822e+00 4.8457891225669796e+00 1.4771530695402355e+01 -2 1 1
4583 1528 4 -8.1999999999999995e-01 1.5906623791010381e+00 2.7264482428307830e+00 1.1000312380418901e+01 4 -2 1
3836 1279 4 -8.1999999999999995e-01 4.0656228618274080e+00 9.6974898855320859e+00 1.5802341842798135e+01 3 1 0
4826 1609 4 -8.1999999999999995e-01 3.1570814047399209e+00 5.0984162783480951e+00 1.6729275994773950e+01 -1 3 -2
1530 510 3 4.0999999999999998e-01 9.8944610770665040e+00 4.2792062602499312e+00 1.8187545568987439e+01 -1 -1 0
5490 1830 3 4.0999999999999998e-01 6.1042813333558748e+00 3.2031021133463886e+00 1.2885352968453519e+01 0 1 -2
6749 2250 4 -8.1999999999999995e-01 2.2574815359258902e+00 8.0971961567327728e+00 1.9774057007814690e+01 6 -1 1
1684 562 3 4.0999999999999998e-01 3.9705467078198793e+00 7.6498167818077825e+00 1.3298081340346426e+01 -1 -1 0
1783 595 3 4.0999999999999998e-01 5.7136218481655749e+00 1.8694726151186287e+00 1.6933959593321902e+01 -1 -2 3
5996 1999 4 -8.1999999999999995e-01 9.3065325302939055e+00 6.1473028784036927e+00 1.8040816342217141e+01 -1 1 -1
4066 1356 3 4.0999999999999998e-01 4.2024932855812946e-01 3.6947422016507532e+00 1.5232553144719141e+01 -1 0 1
6048 2016 3 4.0999999999999998e-01 8.6140813828219898e+00 9.2151728648499596e+00 1.7651555147385046e+01 2 -2 -3
6118 2040 3 4.0999999999999998e-01 2.5972611707126956e+00 8.7507385984188790e+00 1.6288636124253124e+01 2 0 -2
2331 777 3 4.0999999999999998e-01 2.9810191945470610e-01 9.8812262372801243e+00 1.4209053170907787e+01 -1 -3 1
5068 1690 3 4.0999999999999998e-01 3.9398588816605518e+00 7.6442784848445058e+00 1.7308664941356220e+01 -2 3 2
2195 732 4 -8.1999999999999995e-01 9.9261583493431349e+00 7.3677880909522608e+00 1.1302224611121797e+01 2 3 -2
6375 2125 3 4.0999999999999998e-01 9.1969162467149379e-01 6.4532548953746360e+00 1.5273618686133243e+01 0 1 1
4827 1609 3 4.0999999999999998e-01 2.8929088045431453e+00 4.3416143569344507e+00 1.7412611245294926e+01 -1 3 -2
1498 500 3 4.0999999999999998e-01 7.2688994412458188e+00 6.2845891516375127e+00 2.0454415205005326e+01 0 -1 5
2944 982 3 4.0999999999999998e-01 7.2496487945203993e+00 7.8606299070926759e+00 1.2199879235238450e+01 4 1 1
2945 982 4 -8.1999999999999995e-01 7.6788029060488379e+00 7.8826615720090292e+00 1.3110391222798501e+01 4 1 1
6446 2149 4 -8.1999999999999995e-01 7.7364263300278990e-01 5.9716675580284839e-01 1.2870433468355058e+01 -3 4 1
5069 1690 4 -8.1999999999999995e-01 4.4998998491479485e+00 7.9508701728434570e+00 1.8067846845941080e+01 -2 3 2
1784 595 4 -8.1999999999999995e-01 6.5882846683477991e+00 2.3287095423761301e+00 1.7280628004697906e+01 -1 -2 3
5875 1959 3 4.0999999999999998e-01 8.2665139767325115e+00 1.1917088510513494e+00 1.8361917800403052e+01 -3 4 1
6494 2165 4 -8.1999999999999995e-01 6.0183249859784249e+00 3.8238275728587157e+00 1.9454948615045236e+01 3 -1 -2
2390 797 4 -8.1999999999999995e-01 9.5172216598544619e+00 7.7836958964231062e+00 1.5817380762664172e+01 -4 4 2
1208 403 4 -8.1999999999999995e-01 6.6502685751514923e+00 6.3384548036198414e+00 1.8465197729699732e+01 0 2 2
4825 1609 3 4.0999999999999998e-01 2.4113750868430186e+00 5.7952722815366808e+00 1.6679420876159792e+01 -1 3 -2
877 293 3 4.0999999999999998e-01 3.8690561387288405e+00 7.7098858395217720e+00 2.0967237101802638e+01 2 0 0
2194 732 3 4.0999999999999998e-01 8.9425184630593773e+00 7.3504316939316539e+00 1.1554457319872578e+01 2 3 -2
6750 2250 3 4.0999999999999998e-01 1.3939232858577040e+00 7.6630147766236423e+00 1.9417377865255290e+01 6 -1 1
1663 555 3 4.0999999999999998e-01 9.8283787670878819e+00 4.3518414475645830e+00 2.0510015246170664e+01 -2 -1 -4
1686 562 3 4.0999999999999998e-01 4.1253070928512647e+00 6.0334127865243303e+00 1.3772410149876418e+01 -1 -1 0
6705 2235 3 4.0999999999999998e-01 1.4550771240473506e+00 2.1104029024043647e+00 1.6541833217800811e+01 0 -3 -4
4488 1496 3 4.0999999999999998e-01 5.8731584427583030e+00 5.2553719772132128e+00 1.5020751419131710e+01 -2 1 1
2525 842 4 -8.1999999999999995e-01 5.8249934129116365e-01 4.9270018349814002e+00 1.2102557088822579e+01 2 3 2
900 300 3 4.0999999999999998e-01 8.1118642249135373e+00 4.2420485888027439e+00 1.3126773006981017e+01 1 3 2
6464 2155 4 -8.1999999999999995e-01 5.2485179904664143e+00 9.3035323484888792e+00 1.3702465990326276e+01 1 1 -2
2389 797 3 4.0999999999999998e-01 1.0524057564223700e+01 7.6100696004449695e+00 1.5712329049317274e+01 -4 4 2
6343 2115 3 4.0999999999999998e-01 1.6803265902005213e+00 8.4787588149197184e+00 1.2293619930177837e+01 0 2 1
6495 2165 3 4.0999999999999998e-01 6.4567526791538317e+00 3.4587333462439704e+00 2.0283278466747490e+01 3 -1 -2
1292 431 4 -8.1999999999999995e-01 8.2759149951702486e+00 9.3256086633582236e-01 1.3794083044806108e+01 -1 -1 -1
1529 510 4 -8.1999999999999995e-01 1.0186167066440472e+01 3.3627413342156869e+00 1.8478439981799635e+01 -1 -1 0
5070 1690 3 4.0999999999999998e-01 3.8212324263519886e+00 8.0066155270309416e+00 1.8925159137911109e+01 -2 3 2
5489 1830 4 -8.1999999999999995e-01 5.0846463777394755e+00 3.1126589516436796e+00 1.2890627400848938e+01 0 1 -2
3835 1279 3 4.0999999999999998e-01 4.5569543789259530e+00 9.5136724482564379e+00 1.4877694995279528e+01 3 1 0
451 151 3 4.0999999999999998e-01 8.8620884659164911e+00 9.1481955263337564e+00 1.3446045959372343e+01 -1 -3 1
6703 2235 3 4.0999999999999998e-01 2.5722976975519654e+00 2.1170532898195140e+00 1.7704683848602748e+01 0 -3 -4
5997 1999 3 4.0999999999999998e-01 8.2722078333965783e+00 6.1543513359243160e+00 1.8363150598920587e+01 -1 1 -1
6748 2250 3 4.0999999999999998e-01 2.1704380725707635e+00 9.0762194245254850e+00 1.9669906286444942e+01 6 -1 1
6704 2235 4 -8.1999999999999995e-01 2.1119496949833203e+00 1.5268568817549975e+00 1.7032147818301393e+01 0 -3 -4
899 300 4 -8.1999999999999995e-01 7.7390858813397605e+00 3.5054016369350132e+00 1.2512867230110436e+01 1 3 2
5488 1830 3 4.0999999999999998e-01 4.7979157427623988e+00 3.8875784996460556e+00 1.3511102807237968e+01 0 1 -2
4486 1496 3 4.0999999999999998e-01 4.2915457000722883e+00 4.9685093982952679e+00 1.5565902798810148e+01 -2 1 1
4605 1535 3 4.0999999999999998e-01 8.7488806800589067e+00 2.5683116552093082e+00 1.5367052346495528e+01 -1 0 2
4603 1535 3 4.0999999999999998e-01 9.3805213836221935e+00 3.5263023399764202e+00 1.6606243017942003e+01 -1 0 2
4680 1560 3 4.0999999999999998e-01 3.5422211890437292e+00 6.1677461104672915e+00 1.1485800252070787e+01 -1 -1 1
452 151 4 -8.1999999999999995e-01 9.2626766002712042e+00 9.9956029609118637e+00 1.3791827853197448e+01 -1 -3 1
4582 1528 3 4.0999999999999998e-01 2.5456562968336791e+00 2.9136338902874432e+00 1.0775148424446874e+01 4 -2 1
5876 1959 4 -8.1999999999999995e-01 8.8668132198761391e+00 1.1388574275061063e+00 1.9252416131267786e+01 -3 4 1
4584 1528 3 4.0999999999999998e-01 1.1627371213486477e+00 3.4709646437575223e+00 1.1514665378158806e+01 4 -2 1
4067 1356 4 -8.1999999999999995e-01 2.1319091966502293e-01 2.8815068528899728e+00 1.5800368216538127e+01 -1 0 1
1863 621 3 4.0999999999999998e-01 4.3664011844882529e+00 1.5305898453341928e+00 1.3243699851386895e+01 -1 -4 1
6463 2155 3 4.0999999999999998e-01 6.0129093834561536e+00 8.6361750882828616e+00 1.3689357223987699e+01 1 1 -2
2524 842 3 4.0999999999999998e-01 5.6004768701121743e-01 5.0291708256076211e+00 1.3095250384817419e+01 2 3 2
6046 2016 3 4.0999999999999998e-01 8.4375954551670524e+00 9.5701401988911066e+00 1.9364509898070313e+01 2 -2 -3
6374 2125 4 -8.1999999999999995e-01 5.0575801342047111e-01 5.5143265070924636e+00 1.5089279576552123e+01 0 1 1
6465 2155 3 4.0999999999999998e-01 5.2681650923511558e+00 9.9802547961719625e+00 1.2934402121507441e+01 1 1 -2
1685 562 4 -8.1999999999999995e-01 3.8559186878311142e+00 6.7032686821606386e+00 1.3032623368910167e+01 -1 -1 0
6344 2115 4 -8.1999999999999995e-01 9.8499597001777772e-01 9.1868218127642880e+00 1.2628114407693866e+01 0 2 1
6120 2040 3 4.0999999999999998e-01 1.1847193986842317e+00 8.2223063250594066e+00 1.6994005298676363e+01 2 0 -2
2997 999 3 4.0999999999999998e-01 3.2905024313575661e+00 2.0068381170733013e-01 1.6266544318046485e+01 4 3 4
6447 2149 3 4.0999999999999998e-01 1.6030166185151034e+00 3.8830242624916872e-01 1.3344267054106517e+01 -3 4 1
3675 1225 3 4.0999999999999998e-01 7.1838774697000316e+00 2.7426641155673198e-01 2.0631089318106632e+01 1 -2 0
3276 1092 3 4.0999999999999998e-01 8.2003292138388808e+00 2.1137864261540895e+00 2.0685932587801304e+01 5 -3 2
6659 2220 4 -8.1999999999999995e-01 7.1528054142560809e+00 7.2181423564286709e+00 1.0598996588749483e+01 0 1 0
4456 1486 3 4.0999999999999998e-01 6.6825719066512610e+00 1.0363238315242949e+01 1.7892735780980598e+01 0 0 0
6733 2245 3 4.0999999999999998e-01 8.2008068033907584e+00 1.0503915636118460e+01 1.0938871551005398e+01 3 1 5
6640 2214 3 4.0999999999999998e-01 6.0944851121093224e+00 1.0460314228686318e+01 1.1250614715027254e+01 -2 0 4
2995 999 3 4.0999999999999998e-01 4.4369648545710874e+00 4.1301455955478167e-01 1.5125414015440098e+01 4 3 4
4478 1493 4 -8.1999999999999995e-01 9.1017727875211172e+00 9.1885606842673546e+00 2.0907473422513988e+01 3 2 -4
4477 1493 3 4.0999999999999998e-01 8.6627582183856155e+00 8.2631363026474443e+00 2.0887044952932957e+01 3 2 -4
3612 1204 3 4.0999999999999998e-01 6.0440497599008660e+00 9.8530809742631860e+00 2.6216741236697722e+01 2 -5 3
5251 1751 3 4.0999999999999998e-01 7.4456547832242128e+00 1.6540257714683460e+00 2.7990638477949371e+01 1 -4 0
5226 1742 3 4.0999999999999998e-01 4.9985421244163151e+00 4.0303454446738822e+00 2.6842196900073507e+01 3 1 1
4960 1654 3 4.0999999999999998e-01 5.0728435180062910e+00 1.5949715732090599e+00 2.2861533774350082e+01 4 -3 -1
2209 737 3 4.0999999999999998e-01 3.0956725939443461e+00 1.7858999942460008e-01 2.6332066735749059e+01 7 4 -5
157 53 3 4.0999999999999998e-01 8.4367680234033493e+00 9.2599199943685939e-01 2.5958646620549398e+01 -2 1 -2
871 291 3 4.0999999999999998e-01 8.0129963869053693e+00 4.1596598464090073e+00 3.0049619187020610e+01 3 3 -2
239 80 4 -8.1999999999999995e-01 1.0396020085107098e+01 5.9169454450650232e+00 2.7607817421568953e+01 1 -4 3
5720 1907 4 -8.1999999999999995e-01 9.8018962444149604e+00 5.7933183722760484e-01 2.3076639928783617e+01 0 4 -1
4479 1493 3 4.0999999999999998e-01 9.2194160419729343e+00 9.5862720209478987e+00 2.1874555331455994e+01 3 2 -4
1664 555 4 -8.1999999999999995e-01 1.0473029227008713e+01 3.9163415817372309e+00 2.1228619959726007e+01 -2 -1 -4
1296 432 3 4.0999999999999998e-01 7.8270742958186288e+00 5.1630871975079344e+00 2.3979168626320359e+01 1 5 1
4640 1547 4 -8.1999999999999995e-01 5.5801827793954644e+00 7.5098273495755385e-01 2.4351903918169711e+01 1 -2 0
5252 1751 4 -8.1999999999999995e-01 8.3213940823260124e+00 2.0059411761626804e+00 2.7512907206550800e+01 1 -4 0
5225 1742 4 -8.1999999999999995e-01 4.8843335928482654e+00 3.7965287124452654e+00 2.5921292944105442e+01 3 1 1
2192 731 4 -8.1999999999999995e-01 5.3364207299305795e+00 6.5469867382937510e+00 3.0073425282509795e+01 5 -1 -3
6220 2074 3 4.0999999999999998e-01 2.6149010026428940e+00 5.2102434927191803e+00 2.6503669814553326e+01 -1 -2 -2
4857 1619 3 4.0999999999999998e-01 8.1232496111823611e+00 3.4271291140963811e+00 2.7903249198318370e+01 0 7 2
5719 1907 3 4.0999999999999998e-01 1.0532030465762551e+01 2.5109002124838925e-01 2.2457380153149128e+01 0 4 -1
878 293 4 -8.1999999999999995e-01 4.6210286563988712e+00 7.6252821192969638e+00 2.1695300090602828e+01 2 0 0
4962 1654 3 4.0999999999999998e-01 5.2879775298602558e+00 2.2139708715849751e+00 2.1332917076052897e+01 4 -3 -1
7303 2435 3 4.0999999999999998e-01 1.2577237186332739e+00 6.4400549016066497e+00 3.0204830114425278e+01 0 3 -2
6208 2070 3 4.0999999999999998e-01 4.4494790047385004e+00 4.5330687232600821e+00 2.4252005183353710e+01 1 1 2
4961 1654 4 -8.1999999999999995e-01 4.6055587441153278e+00 1.9887543535704710e+00 2.2050428426057586e+01 4 -3 -1
4856 1619 4 -8.1999999999999995e-01 8.0222878024286874e+00 4.4113090705447018e+00 2.8293690985025684e+01 0 7 2
4204 1402 3 4.0999999999999998e-01 1.0251680227644286e+00 9.2368880551426713e+00 3.1270539701730581e+01 3 4 1
664 222 3 4.0999999999999998e-01 1.7979304899160919e+00 8.3612236275425129e+00 2.3484757582365681e+01 -2 1 1
1346 449 4 -8.1999999999999995e-01 8.7835416284957690e-01 9.3101008277721569e+00 2.8481780993373405e+01 1 1 -1
6209 2070 4 -8.1999999999999995e-01 4.5496390152395403e+00 5.3294399509057193e+00 2.3590618712941811e+01 1 1 2
2745 915 3 4.0999999999999998e-01 6.0815737919303867e+00 9.2280623875776033e+00 3.1013408460297629e+01 -1 -3 4
7171 2391 3 4.0999999999999998e-01 8.1783442799355743e+00 9.6937978026020204e+00 3.0755070486794285e+01 3 -3 -3
1651 551 3 4.0999999999999998e-01 8.5294572544911667e+00 5.3474868696732916e+00 2.6401910569206400e+01 2 1 0
952 318 3 4.0999999999999998e-01 3.4837912989456035e+00 3.0736803584166759e+00 2.1711930248289583e+01 2 -1 3
2193 731 3 4.0999999999999998e-01 6.2179819835942869e+00 6.8723863579065148e+00 3.0283208953437867e+01 5 -1 -3
2191 731 3 4.0999999999999998e-01 4.6800507402323399e+00 7.3223080205857274e+00 3.0220517432956211e+01 5 -1 -3
7305 2435 3 4.0999999999999998e-01 1.6853450881076487e-01 5.9573364789357957e+00 2.9138275792795692e+01 0 3 -2
5721 1907 3 4.0999999999999998e-01 1.0056068358936061e+01 1.4460706546127737e+00 2.3560833488164594e+01 0 4 -1
1345 449 3 4.0999999999999998e-01 7.7725783694072836e-01 8.3013798223244777e+00 2.8734296599237517e+01 1 1 -1
954 318 3 4.0999999999999998e-01 3.2102842405526641e+00 4.5289738588581274e+00 2.2376805682263782e+01 2 -1 3
2245 749 3 4.0999999999999998e-01 1.0889332185613616e+00 4.3621871865333324e+00 2.1178434486548809e+01 0 -1 -2
1499 500 4 -8.1999999999999995e-01 8.0896473526717116e+00 6.3368554084950546e+00 2.1087886306858024e+01 0 -1 5
4310 1437 4 -8.1999999999999995e-01 5.9591670815999356e+00 1.0635810935539824e+00 2.8470904681250367e+01 -5 2 -2
158 53 4 -8.1999999999999995e-01 8.2467153269232067e+00 2.2191644990316628e-01 2.5257506877222024e+01 -2 1 -2
2210 737 4 -8.1999999999999995e-01 3.8959033692853624e+00 6.7912146502787629e-01 2.6661746348051945e+01 7 4 -5