LAMMPS data file via write_data, version 5 Jun 2019, timestep = 20480000

7349 atoms
5 atom types
4899 bonds
2 bond types
2451 angles
2 angle types
1 impropers
1 improper types

1.5519297081455363e-01 4.1845807029189409e+01 xlo xhi
1.5469297081455124e-01 4.1845307029189406e+01 ylo yhi
1.5469297081455124e-01 4.1845307029189406e+01 zlo zhi

#Masses
#
#1 12.01
#2 40.08
#3 1.01
#4 16
#5 16
#
#Bond Coeffs # harmonic
#
#1 20.4246 1.3042
#2 22.965 1.012

Atoms # full

3851 1284 4 -8.1999999999999995e-01 7.3495223485014485e+00 6.2628560561082951e+00 4.5694687379645007e+00 1 -3 -2
303 101 3 4.0999999999999998e-01 6.7279499272018359e+00 5.6664055381894922e+00 8.1933268365042533e+00 -2 0 0
3276 1092 3 4.0999999999999998e-01 2.6336073691453605e+00 6.0385308610859445e+00 6.4275756012620207e+00 6 -2 1
5175 1725 3 4.0999999999999998e-01 5.0954871010277607e+00 1.3610114318837045e+00 3.0053313864449729e+00 2 0 -5
3929 1310 4 -8.1999999999999995e-01 6.6599274005737179e+00 9.1085999049815811e+00 4.9315548611240967e+00 -4 5 2
6623 2208 4 -8.1999999999999995e-01 3.3252147521340203e+00 8.5493695876015963e+00 4.3756166613827627e+00 0 -3 4
4861 1621 3 4.0999999999999998e-01 9.8257847530229423e+00 9.2947053560240107e+00 9.3216328612133168e+00 -1 1 4
3288 1096 3 4.0999999999999998e-01 1.0061749838460081e+01 8.4746726714013487e+00 1.7201612491369476e+00 3 -2 -4
1134 378 3 4.0999999999999998e-01 8.6381475285877709e+00 6.5924970351914043e+00 9.0903955553536946e+00 2 3 -1
6622 2208 3 4.0999999999999998e-01 4.0142673491128580e+00 7.9125071806646767e+00 4.7642095797144348e+00 0 -3 4
353 118 4 -8.1999999999999995e-01 9.5744707498842063e-01 5.8209203566252272e+00 2.4839517393533197e+00 1 -1 -3
6992 2331 4 -8.1999999999999995e-01 8.2034776188936593e+00 5.0210352761154544e+00 8.7077848671822036e+00 4 -4 -1
2724 908 3 4.0999999999999998e-01 4.4380737688850260e+00 6.0318524012474839e+00 5.0463064549167820e+00 1 0 -1
250 84 3 4.0999999999999998e-01 6.4988806120926190e+00 5.7200522310791524e-01 9.2918644682969695e+00 1 1 -2
2770 924 3 4.0999999999999998e-01 1.4524408229937706e+00 9.9637800309878199e-01 7.4957366614086656e+00 2 -4 -2
5217 1739 3 4.0999999999999998e-01 2.1491212376604749e+00 4.3511709419830238e+00 4.8504516713892416e+00 0 5 2
5347 1783 3 4.0999999999999998e-01 8.7183728452265896e+00 1.8868649987850099e+00 6.9485655719189428e+00 0 0 1
314 105 4 -8.1999999999999995e-01 2.3052292762042614e+00 6.5880191353554434e+00 9.9121761399240835e+00 3 0 6
5173 1725 3 4.0999999999999998e-01 3.5653299184785014e+00 1.0780799442738349e+00 3.2271118336588351e+00 2 0 -5
352 118 3 4.0999999999999998e-01 1.1814883798696916e+00 6.8070252073949060e+00 2.3719526679207070e+00 1 -1 -3
4157 1386 4 -8.1999999999999995e-01 7.1139783433489718e+00 7.4318887083281702e+00 2.0940135408277487e+00 1 3 2
2428 810 3 4.0999999999999998e-01 7.8592274758283969e+00 8.2982112644815729e+00 8.1654543911224184e+00 3 2 1
301 101 3 4.0999999999999998e-01 5.2425047711054695e+00 5.6750314026481101e+00 8.7417373378429009e+00 -2 0 0
5970 1990 3 4.0999999999999998e-01 4.6741060772945051e+00 3.3861041686060780e+00 8.9572536177172317e+00 3 0 -7
2041 681 3 4.0999999999999998e-01 2.0952416541913927e+00 8.9728772308982627e+00 2.9434703208529069e+00 0 2 -4
1917 639 3 4.0999999999999998e-01 1.2816967121693665e+00 2.5310468572673530e+00 6.1638285401798445e+00 2 3 -1
3856 1286 3 4.0999999999999998e-01 3.9917692784870851e+00 3.9431394598145184e+00 4.4053193302543701e+00 -2 2 2
5348 1783 4 -8.1999999999999995e-01 9.0499416679126714e+00 1.4209774686079237e+00 6.1001202520067519e+00 0 0 1
2223 741 3 4.0999999999999998e-01 4.2097214019801434e+00 4.4887991963806106e+00 9.6475069221805476e-01 0 3 4
6332 2111 4 -8.1999999999999995e-01 9.1684014231685360e+00 9.9813230903914842e+00 4.4088671749073622e+00 4 -2 2
6258 2086 3 4.0999999999999998e-01 1.1346259533695644e+00 2.1849562015512222e-01 9.5417177738422225e+00 -3 -1 -1
2221 741 3 4.0999999999999998e-01 5.2105800077183453e+00 4.1875529123905570e+00 2.1812458139271973e+00 0 3 4
3274 1092 3 4.0999999999999998e-01 1.8592399629852507e+00 7.3840186341332528e+00 6.8623434747579806e+00 6 -2 1
2725 909 3 4.0999999999999998e-01 1.2372421085297813e+00 4.8868936600185071e+00 1.1311449129156115e+00 -2 -3 3
3228 1076 3 4.0999999999999998e-01 4.2869357265967567e+00 9.8986392599054938e+00 3.6105689693584808e+00 4 4 0
3858 1286 3 4.0999999999999998e-01 5.3622331886623575e+00 3.0220742863723884e+00 4.1982445006217128e+00 -2 2 2
4862 1621 4 -8.1999999999999995e-01 1.0374962621093230e+01 9.9931053375757042e+00 8.8569509808623987e+00 -1 1 4
1133 378 4 -8.1999999999999995e-01 8.9462084213319084e+00 7.6098537234720629e+00 9.2796440384225800e+00 2 3 -1
2772 924 3 4.0999999999999998e-01 2.7246791880424444e+00 1.7912508053537539e+00 8.0047113854073277e+00 2 -4 -2
7106 2369 4 -8.1999999999999995e-01 6.8279734372523899e+00 2.0315210735956106e+00 5.2613041131398885e-01 -5 1 4
3035 1012 4 -8.1999999999999995e-01 6.6220634200816288e+00 1.6858527432496802e+00 3.7642099123897999e+00 2 3 -2
3983 1328 4 -8.1999999999999995e-01 9.3350094968125799e+00 5.5050314897159094e+00 6.3995453105465518e+00 -1 -2 1
2462 821 4 -8.1999999999999995e-01 8.5382277535007791e+00 4.5236079492256236e+00 5.0200771918995812e-01 5 1 -2
2433 811 3 4.0999999999999998e-01 9.6585775074789515e-01 9.5339627427348734e+00 6.1340609516473483e+00 3 -1 4
5961 1987 3 4.0999999999999998e-01 8.3556574682613629e+00 4.2776278616356258e+00 2.2713978854670209e+00 -1 3 1
6991 2331 3 4.0999999999999998e-01 8.7654071588488645e+00 4.7812532036724775e+00 7.8267669681493830e+00 4 -4 -1
609 203 3 4.0999999999999998e-01 1.0348114693157351e+01 4.0422510128432532e-01 4.9815965244633631e+00 1 1 5
2430 810 3 4.0999999999999998e-01 6.9660088617129015e+00 8.6641048948473518e+00 6.7711895325889211e+00 3 2 1
3286 1096 3 4.0999999999999998e-01 1.0428025118743328e+01 9.3479150743513042e+00 3.0079683850933892e+00 3 -2 -4
3852 1284 3 4.0999999999999998e-01 7.3005158432408122e+00 6.8037578724680579e+00 3.6437073665417947e+00 1 -3 -2
4156 1386 3 4.0999999999999998e-01 7.9746668236064400e+00 7.3984769023702821e+00 1.4798638371576223e+00 1 3 2
2043 681 3 4.0999999999999998e-01 1.3839155094337459e+00 9.0427195875778157e+00 1.4687609518304390e+00 0 2 -4
251 84 4 -8.1999999999999995e-01 7.0889628755243042e+00 3.4807579583030179e-01 1.0134143759027696e+01 1 1 -2
4158 1386 3 4.0999999999999998e-01 6.3572073635760837e+00 7.5319809693385809e+00 1.4010394760035618e+00 1 3 2
3850 1284 3 4.0999999999999998e-01 6.4538058921427499e+00 6.2418412891549231e+00 5.0777105880348907e+00 1 -3 -2
5215 1739 3 4.0999999999999998e-01 2.1865079872076816e+00 5.5073700814196824e+00 3.7066101626540058e+00 0 5 2
2723 908 4 -8.1999999999999995e-01 4.9558261836974182e+00 6.7892496716944217e+00 5.5144707680981648e+00 1 0 -1
3984 1328 3 4.0999999999999998e-01 9.8775902590506206e+00 6.2837773504493333e+00 6.8249040392955465e+00 -1 -2 1
2201 734 4 -8.1999999999999995e-01 8.3571884465159918e-01 1.8124328836006385e+00 3.7341317652095313e-01 1 -2 1
2722 908 3 4.0999999999999998e-01 5.2628219564791525e+00 6.5667953101027630e+00 6.5095769681321816e+00 1 0 -1
2968 990 3 4.0999999999999998e-01 5.9798790771516561e+00 9.8684117423514728e+00 4.7743363121004001e-01 -1 4 3
313 105 3 4.0999999999999998e-01 3.2462924338450465e+00 6.2140386598251913e+00 1.0204775545305804e+01 3 0 6
3982 1328 3 4.0999999999999998e-01 8.7599749311627892e+00 5.7935812697218463e+00 5.5567720375623093e+00 -1 -2 1
2222 741 4 -8.1999999999999995e-01 5.0802846668438102e+00 3.9977306833686130e+00 1.1613303749491874e+00 0 3 4
1916 639 4 -8.1999999999999995e-01 6.7806599538573997e-01 3.1189854638841257e+00 5.4669614850918498e+00 2 3 -1
2200 734 3 4.0999999999999998e-01 9.2860515966854240e-01 1.9578554425941526e+00 1.4198204012601225e+00 1 -2 1
5277 1759 3 4.0999999999999998e-01 5.2885845422634441e+00 1.6053952055509266e+00 7.7467396777480682e+00 -5 4 0
3034 1012 3 4.0999999999999998e-01 7.3462253590506119e+00 2.3911967456306158e+00 3.4582246367294474e+00 2 3 -2
5969 1990 4 -8.1999999999999995e-01 4.9319537146262649e+00 3.3229588380915023e+00 7.9550245585299848e+00 3 0 -7
6624 2208 3 4.0999999999999998e-01 2.4734974358666344e+00 8.6552202236371834e+00 4.9390152008353638e+00 0 -3 4
6993 2331 3 4.0999999999999998e-01 8.4589674670317070e+00 4.4737723008733683e+00 9.5494676515535772e+00 4 -4 -1
3930 1310 3 4.0999999999999998e-01 5.9990696329640034e+00 9.6590726463394248e+00 4.4676127907322103e+00 -4 5 2
302 101 4 -8.1999999999999995e-01 5.7545457689373043e+00 5.7312205976782389e+00 7.8257017673157359e+00 -2 0 0
5960 1987 4 -8.1999999999999995e-01 7.8832683278088664e+00 3.9242118043038787e+00 3.0830456565939008e+00 -1 3 1
3275 1092 4 -8.1999999999999995e-01 2.4607630055938969e+00 6.6245051909614627e+00 7.2223236959982104e+00 6 -2 1
3928 1310 3 4.0999999999999998e-01 6.6613445019569095e+00 8.2693641863305736e+00 4.3651764050530950e+00 -4 5 2
2042 681 4 -8.1999999999999995e-01 1.2586153091175976e+00 8.6500287444949464e+00 2.4125662995672248e+00 0 2 -4
3599 1200 4 -8.1999999999999995e-01 9.3593267154374296e+00 7.3175243180725120e+00 6.2001604963928136e-01 1 0 -3
4191 1397 3 4.0999999999999998e-01 3.7984372007411200e+00 1.9096575513452334e+00 7.8289448837823994e-01 0 2 -3
3307 1103 3 4.0999999999999998e-01 1.0022002702887406e+01 9.1067227194993450e+00 7.1553314567907984e+00 -1 -1 -4
3036 1012 3 4.0999999999999998e-01 7.0374764408415169e+00 1.1424788484324702e+00 4.5020956333847533e+00 2 3 -2
1467 489 3 4.0999999999999998e-01 1.0426062188365425e+01 1.8467316628254598e+00 9.6163443291491255e+00 3 2 4
2771 924 4 -8.1999999999999995e-01 2.1065974612699403e+00 1.7148797945601355e+00 7.1598846363326221e+00 2 -4 -2
315 105 3 4.0999999999999998e-01 2.3214504348425664e+00 6.6759984341708725e+00 8.8722110337779689e+00 3 0 6
1466 489 4 -8.1999999999999995e-01 9.9154126556900000e+00 2.7305347634975417e+00 9.7092227444122035e+00 3 2 4
432 144 3 4.0999999999999998e-01 4.5377390196521841e+00 9.2789366027103419e+00 8.2891113973103820e+00 -2 2 2
6333 2111 3 4.0999999999999998e-01 8.3076931124312754e+00 9.4277029732391728e+00 4.5030001052940669e+00 4 -2 2
3308 1103 4 -8.1999999999999995e-01 1.0265434494236592e+01 8.5458402706607934e+00 6.3076189424773972e+00 -1 -1 -4
5349 1783 3 4.0999999999999998e-01 9.7472215448318362e+00 2.0948673946122756e+00 5.7066338073164884e+00 0 0 1
7287 2429 3 4.0999999999999998e-01 8.9775043523060927e-01 2.3763925069451446e+00 4.0249961960915082e+00 4 0 3
2429 810 4 -8.1999999999999995e-01 7.2351236679942543e+00 8.9785847270925139e+00 7.7273948684609470e+00 3 2 1
5968 1990 3 4.0999999999999998e-01 5.2211469021231371e+00 4.2901264041869744e+00 7.7122257975804116e+00 3 0 -7
5959 1987 3 4.0999999999999998e-01 7.3067549727194185e+00 4.5769032940501200e+00 3.5964296827140885e+00 -1 3 1
5174 1725 4 -8.1999999999999995e-01 4.3026132288046366e+00 9.8850223682356864e-01 2.5204232665107824e+00 2 0 -5
3600 1200 3 4.0999999999999998e-01 9.3693194319322650e+00 6.2991582388412102e+00 8.8275394334575930e-01 1 0 -3
2432 811 4 -8.1999999999999995e-01 9.3141889336685613e-01 8.5566030246864742e+00 5.8659300977878246e+00 3 -1 4
5216 1739 4 -8.1999999999999995e-01 2.4954899541271498e+00 5.2758331622990404e+00 4.6785275981213870e+00 0 5 2
3857 1286 4 -8.1999999999999995e-01 4.8500904006209522e+00 3.8116470000195020e+00 3.8400351950643263e+00 -2 2 2
47 16 4 -8.1999999999999995e-01 3.0250905498557228e+00 4.2819328190280270e-01 4.9817947244271856e+00 5 1 0
3309 1103 3 4.0999999999999998e-01 1.0077508448556417e+01 9.2673794906627069e+00 5.6210272600085665e+00 -1 -1 -4
430 144 3 4.0999999999999998e-01 4.0549303661382448e+00 1.0562821351514064e+01 7.3499844617541115e+00 -2 2 2
48 16 3 4.0999999999999998e-01 2.8751387511393647e+00 1.0537277615326848e+00 5.7900240201663147e+00 5 1 0
2431 811 3 4.0999999999999998e-01 1.7111235651903911e-01 8.4411602945486468e+00 5.2298480729316834e+00 3 -1 4
1132 378 3 4.0999999999999998e-01 9.5795809180067319e+00 7.6401304811375832e+00 1.0128296236175528e+01 2 3 -1
7105 2369 3 4.0999999999999998e-01 6.2306581438345452e+00 2.7627237223564038e+00 8.3253559100055008e-01 -5 1 4
6681 2227 3 4.0999999999999998e-01 4.0058885571625996e-01 5.5841307060762402e+00 9.1104527627372889e+00 3 2 -1
431 144 4 -8.1999999999999995e-01 4.1841871249648381e+00 1.0199372071504783e+01 8.2844542252897106e+00 -2 2 2
3667 1223 3 4.0999999999999998e-01 7.0291225410993023e+00 9.9136003919133078e+00 9.5805798380569520e+00 3 -1 0
7107 2369 3 4.0999999999999998e-01 6.5160474212458768e+00 1.1285763899632060e+00 8.5434106625213879e-01 -5 1 4
2202 734 3 4.0999999999999998e-01 1.5607246304175362e+00 1.0822829865684549e+00 1.5634793756578219e-01 1 -2 1
5276 1759 4 -8.1999999999999995e-01 5.7170420119005803e+00 6.2335909164897318e-01 7.7597036643403401e+00 -5 4 0
6293 2098 4 -8.1999999999999995e-01 4.5725435345186183e+00 5.3113774260877875e+00 1.0271353598544964e+01 3 -2 -2
7286 2429 4 -8.1999999999999995e-01 1.1255260553418744e+00 1.9438367574769426e+00 3.0619026968315137e+00 4 0 3
7285 2429 3 4.0999999999999998e-01 8.9997217736013402e-01 9.2322654879629296e-01 3.0278541405359465e+00 4 0 3
2463 821 3 4.0999999999999998e-01 8.2004829195377322e+00 3.5688593630506511e+00 5.5946242790322920e-01 5 1 -2
4062 1354 3 4.0999999999999998e-01 1.0115351545614187e+01 4.1790157566298447e+00 5.4371903003893838e+00 0 -1 1
5200 1734 3 4.0999999999999998e-01 3.5666177536720572e-01 6.1757795941431679e+00 5.2456349856044238e+00 0 5 4
252 84 3 4.0999999999999998e-01 7.2786009929175375e+00 1.2636479088093930e+00 1.0551026427573031e+01 1 1 -2
6158 2053 4 -8.1999999999999995e-01 9.0917613541019593e-01 1.9421574705680131e+00 1.0365060950629589e+01 -1 5 -1
550 184 3 4.0999999999999998e-01 2.5372633252473955e+00 1.0347007971268326e+01 1.0784969704200416e+01 -2 -2 -4
5728 1910 3 4.0999999999999998e-01 6.3199866926789117e+00 8.8142693100353746e+00 1.1874349856227381e+01 4 -3 3
4534 1512 3 4.0999999999999998e-01 3.6412107993270091e+00 7.5490951342438013e+00 1.3851407195725052e+01 -2 3 -3
70 24 3 4.0999999999999998e-01 5.8215555164787745e+00 1.1582606753400770e+00 1.7802857867124537e+01 3 0 3
7307 2436 4 -8.1999999999999995e-01 1.8220817107408869e+00 8.9298143439722928e+00 1.1237427254989989e+01 0 2 2
6265 2089 3 4.0999999999999998e-01 1.8451089955243243e+00 1.8237094916127967e+00 1.3186675857827353e+01 1 0 -2
3120 1040 3 4.0999999999999998e-01 1.0231366789642504e+01 3.8217121530459339e+00 1.8834514341922368e+01 -4 8 -2
4687 1563 3 4.0999999999999998e-01 7.9610705072331207e+00 6.2688710863421946e+00 1.4556939425984099e+01 -1 0 5
1508 503 4 -8.1999999999999995e-01 8.2521289105181639e-01 6.9457501670323936e+00 1.7141578994813226e+01 0 0 -4
1509 503 3 4.0999999999999998e-01 8.5536052687707775e-01 6.8188787358751695e+00 1.6112001568012495e+01 0 0 -4
6266 2089 4 -8.1999999999999995e-01 2.7549550681918022e+00 1.3865741208348499e+00 1.3035614022462580e+01 1 0 -2
2399 800 4 -8.1999999999999995e-01 3.1492499856443410e+00 5.7135266722518523e+00 1.7800152150240766e+01 2 2 1
4501 1501 3 4.0999999999999998e-01 2.9246349907589564e+00 8.7826183250534964e+00 1.6008059937274652e+01 -1 1 -1
634 212 3 4.0999999999999998e-01 2.1605132876802369e+00 5.7879621942090065e+00 1.2873864674313532e+01 4 -2 -4
4502 1501 4 -8.1999999999999995e-01 3.5715680955528342e+00 9.0769142276724804e+00 1.6759937894296627e+01 -1 1 -1
4651 1551 3 4.0999999999999998e-01 4.6523810010961189e+00 8.1587982560061771e+00 1.7750451661040270e+01 7 6 1
5934 1978 3 4.0999999999999998e-01 9.0706879762904720e+00 3.1518095957765615e+00 1.3035293316918052e+01 2 -2 2
5730 1910 3 4.0999999999999998e-01 4.9619651600642110e+00 8.9996313096914946e+00 1.2821673717968492e+01 4 -3 3
1389 463 3 4.0999999999999998e-01 6.3124189670718325e+00 3.7301100460867751e+00 1.1408786128389668e+01 -4 4 1
6267 2089 3 4.0999999999999998e-01 3.4302691993346390e+00 1.5552604950669862e+00 1.3789663266093863e+01 1 0 -2
6733 2245 3 4.0999999999999998e-01 6.1712472091654016e+00 5.7299587341038354e+00 1.5661559299135124e+01 3 2 5
1144 382 3 4.0999999999999998e-01 2.6316511958653890e+00 2.8759240413398413e+00 1.1045078331350030e+01 2 0 0
2398 800 3 4.0999999999999998e-01 3.2946046728000593e+00 5.3981668608353628e+00 1.6867836260250982e+01 2 2 1
5947 1983 3 4.0999999999999998e-01 9.9435933904615137e+00 6.7148583134883999e-01 1.8718627169419918e+01 6 3 -1
1135 379 3 4.0999999999999998e-01 3.3392290350324587e+00 4.7285506570253029e+00 2.0911324161526196e+01 2 4 0
6496 2166 3 4.0999999999999998e-01 7.2629745272255199e+00 5.5490707463681854e+00 1.2640661667929150e+01 2 -2 4
7306 2436 3 4.0999999999999998e-01 2.1233166113424344e+00 8.1038027965039277e+00 1.0684824053448704e+01 0 2 2
4688 1563 4 -8.1999999999999995e-01 8.4282705871919088e+00 5.6098130255637475e+00 1.3895946453052909e+01 -1 0 5
6638 2213 4 -8.1999999999999995e-01 1.0396521052402695e+01 8.1975073986152207e+00 1.1611913289129147e+01 -1 -3 2
4007 1336 4 -8.1999999999999995e-01 2.3489570730621594e+00 1.0163704222299319e+00 1.6482571097392274e+01 0 0 0
1812 604 3 4.0999999999999998e-01 9.0844624520146375e+00 1.0055977966793813e+01 2.0593244389862470e+01 0 0 0
6728 2243 4 -8.1999999999999995e-01 7.4163723124445164e+00 3.4581934733846542e+00 1.7468111189430488e+01 3 1 -1
6637 2213 3 4.0999999999999998e-01 1.0354911146199521e+01 7.9276791770160679e+00 1.2580043652104594e+01 -1 -3 2
1136 379 4 -8.1999999999999995e-01 3.0970090646994342e+00 4.2200214815805808e+00 1.9996291752390938e+01 2 4 0
1387 463 3 4.0999999999999998e-01 7.0350065906319630e+00 2.6311064063009728e+00 1.2395562861426351e+01 -4 4 1
1650 550 3 4.0999999999999998e-01 6.6649811566007733e+00 8.2949774067530004e+00 1.5556922271174834e+01 -5 -4 2
508 170 3 4.0999999999999998e-01 4.8676388243720252e+00 9.4033964250646189e+00 1.6189102575008867e+01 4 2 1
6498 2166 3 4.0999999999999998e-01 6.0945670950842983e+00 6.6300710376011143e+00 1.2083652358640771e+01 2 -2 4
4536 1512 3 4.0999999999999998e-01 4.2630470968205518e+00 6.1065024080342925e+00 1.4334800200923405e+01 -2 3 -3
6201 2067 3 4.0999999999999998e-01 4.7420745273078673e+00 3.1588159044443076e+00 1.5242496134795184e+01 0 -3 2
1507 503 3 4.0999999999999998e-01 1.6907000185931245e+00 6.7418371194901452e+00 1.7643997751588458e+01 0 0 -4
3153 1051 3 4.0999999999999998e-01 1.6186406577800221e+00 1.0045709113468117e+01 1.6177406179623826e+01 -2 -1 1
1802 601 4 -8.1999999999999995e-01 4.0249962324100119e+00 8.6347140393267150e+00 2.0697049381911683e+01 -1 4 0
2400 800 3 4.0999999999999998e-01 3.8968176291794281e+00 6.4198688600553657e+00 1.8062464068688239e+01 2 2 1
3669 1223 3 4.0999999999999998e-01 8.0752257166237946e+00 1.0149563246899437e+01 1.0954491526571070e+01 3 -1 0
6129 2043 3 4.0999999999999998e-01 7.4591498832893350e+00 1.5708783185100730e+00 1.4613168464495539e+01 0 -2 2
6735 2245 3 4.0999999999999998e-01 6.1539809474940883e+00 4.2512456761388826e+00 1.6420041524208436e+01 3 2 5
225 75 3 4.0999999999999998e-01 2.6041634003689196e+00 9.3046800157847080e+00 1.9788709395971033e+01 2 -6 -1
6639 2213 3 4.0999999999999998e-01 9.8683980800258411e+00 9.1171745093065599e+00 1.1629934186934836e+01 -1 -3 2
224 75 4 -8.1999999999999995e-01 2.3107123332097470e+00 1.0038851333747816e+01 1.9065841915889123e+01 2 -6 -1
4006 1336 3 4.0999999999999998e-01 3.3196140764820288e+00 1.3776266030203088e+00 1.6104978813783724e+01 0 0 0
6352 2118 3 4.0999999999999998e-01 6.2685755124893849e-01 4.1227023433946890e+00 1.2740675780189596e+01 -5 0 1
5933 1978 4 -8.1999999999999995e-01 9.6179232405235631e+00 2.5599804304353633e+00 1.2441081060143262e+01 2 -2 2
4535 1512 4 -8.1999999999999995e-01 3.3861742434463946e+00 6.5903922192955804e+00 1.4099626286795068e+01 -2 3 -3
6729 2243 3 4.0999999999999998e-01 6.6677581486631876e+00 3.2561101542876436e+00 1.8117669218402888e+01 3 1 -1
4652 1551 4 -8.1999999999999995e-01 5.0302742719291196e+00 7.4552673209114504e+00 1.8414270763906714e+01 7 6 1
4689 1563 3 4.0999999999999998e-01 9.4116287964114491e+00 5.5711484353065384e+00 1.4206319541763371e+01 -1 0 5
798 266 3 4.0999999999999998e-01 6.6233458078165777e+00 7.6755602278338104e+00 1.8354724176555091e+01 5 -2 -2
5663 1888 4 -8.1999999999999995e-01 1.0166628092379625e+01 8.3575845816345034e+00 1.4542138969455282e+01 0 1 1
4344 1448 3 4.0999999999999998e-01 3.5483651265582211e-01 4.7232387829438744e+00 2.0668399953072932e+01 0 -1 -5
1137 379 3 4.0999999999999998e-01 2.9819239872972196e+00 4.9247440114746928e+00 1.9227844197980815e+01 2 4 0
1866 622 3 4.0999999999999998e-01 9.8572230318033647e+00 9.8062327154002382e+00 1.7231434445976710e+01 4 4 0
509 170 4 -8.1999999999999995e-01 5.8625341934493580e+00 9.6965979602503918e+00 1.5888143667007267e+01 4 2 1
3074 1025 4 -8.1999999999999995e-01 5.2742166730569977e+00 2.5494882512187709e+00 1.9227880055296971e+01 1 0 4
7308 2436 3 4.0999999999999998e-01 8.3618862654415105e-01 8.7735921388177971e+00 1.1509242974109478e+01 0 2 2
6127 2043 3 4.0999999999999998e-01 6.7484008670960431e+00 2.0110022063720906e-01 1.3836451196204090e+01 0 -2 2
3118 1040 3 4.0999999999999998e-01 1.0114924774856034e+01 5.4774143884730986e+00 1.8519853116508358e+01 -4 8 -2
4503 1501 3 4.0999999999999998e-01 3.1155944484432316e+00 9.4468572620127098e+00 1.7595683648469173e+01 -1 1 -1
635 212 4 -8.1999999999999995e-01 1.3302255314721187e+00 5.8154692010174225e+00 1.2287036231672603e+01 4 -2 -4
4008 1336 3 4.0999999999999998e-01 1.8145702454425101e+00 1.8406140638690252e+00 1.6605000448375542e+01 0 0 0
71 24 4 -8.1999999999999995e-01 5.9227323553244089e+00 1.5985953084527679e-01 1.7678363879407552e+01 3 0 3
4682 1561 4 -8.1999999999999995e-01 3.5296237159718352e-01 7.4401943519263591e+00 1.4210564319889555e+01 0 -1 4
1648 550 3 4.0999999999999998e-01 7.3705037115463581e+00 7.4227700843617734e+00 1.6588625433251579e+01 -5 -4 2
6727 2243 3 4.0999999999999998e-01 8.0868366330912522e+00 3.9451437112779200e+00 1.8012823407625067e+01 3 1 -1
6912 2304 3 4.0999999999999998e-01 8.4084234797538091e+00 2.8690300801016928e+00 1.6200334520179862e+01 5 -3 -2
6968 2323 4 -8.1999999999999995e-01 3.4063202577498988e+00 9.4711874920821515e+00 1.3296167861505589e+01 0 3 -1
1170 390 3 4.0999999999999998e-01 1.7779916965095624e-01 3.8159275599012203e+00 1.5494656357695353e+01 -1 2 -3
6734 2245 4 -8.1999999999999995e-01 5.6274758818729200e+00 4.8651950657624461e+00 1.5817976418180738e+01 3 2 5
6497 2166 4 -8.1999999999999995e-01 6.4726100575013525e+00 5.6756190821270085e+00 1.1998526596947780e+01 2 -2 4
796 266 3 4.0999999999999998e-01 8.2086065452105252e+00 8.1781789400324580e+00 1.8788997437651062e+01 5 -2 -2
6199 2067 3 4.0999999999999998e-01 5.2943050384891066e+00 1.6225013514344242e+00 1.5209507495877029e+01 0 -3 2
797 266 4 -8.1999999999999995e-01 7.6039654462670816e+00 7.6533590914623897e+00 1.8090717710979444e+01 5 -2 -2
275 92 4 -8.1999999999999995e-01 8.0105662600093623e+00 5.3449643159945319e+00 2.0892591085240035e+01 0 -2 2
223 75 3 4.0999999999999998e-01 1.2987811772110214e+00 1.0107807139874339e+01 1.8806047164907365e+01 2 -6 -1
4653 1551 3 4.0999999999999998e-01 4.4727118544125197e+00 7.6164874869916890e+00 1.9280539196113700e+01 7 6 1
3075 1025 3 4.0999999999999998e-01 4.6909218944536404e+00 3.3814028258617874e+00 1.9502256377133921e+01 1 0 4
6353 2118 4 -8.1999999999999995e-01 4.8457033735890276e-01 3.1048724961751670e+00 1.2856046316023477e+01 -5 0 1
1649 550 4 -8.1999999999999995e-01 7.1835185105003205e+00 7.3798272929847553e+00 1.5592838373275930e+01 -5 -4 2
3119 1040 4 -8.1999999999999995e-01 9.6317623415252651e+00 4.6044735765971572e+00 1.8811452424477089e+01 -4 8 -2
6200 2067 4 -8.1999999999999995e-01 4.4086438341430609e+00 2.1428179215464684e+00 1.5326113373178954e+01 0 -3 2
636 212 3 4.0999999999999998e-01 1.5182670707494499e+00 6.1915674445613771e+00 1.1343247478367990e+01 4 -2 -4
6967 2323 3 4.0999999999999998e-01 2.8754436960586713e+00 1.0233080452128750e+01 1.3768321183431580e+01 0 3 -1
6969 2323 3 4.0999999999999998e-01 2.8600758202916525e+00 9.1919142789400663e+00 1.2447739209853271e+01 0 3 -1
3668 1223 4 -8.1999999999999995e-01 7.1108953506350714e+00 9.9014736675724748e+00 1.0599869224779127e+01 3 -1 0
6128 2043 4 -8.1999999999999995e-01 6.5957891950744711e+00 1.1189530090335427e+00 1.4287658777603625e+01 0 -2 2
1811 604 4 -8.1999999999999995e-01 8.4269858161968880e+00 9.2616759215419044e+00 2.0468758363863309e+01 0 0 0
1145 382 4 -8.1999999999999995e-01 3.5515781639387853e+00 3.2220350504247919e+00 1.1322510640030995e+01 2 0 0
6911 2304 4 -8.1999999999999995e-01 8.9139341190248196e+00 2.3914134377511300e+00 1.5411363645787100e+01 5 -3 -2
1388 463 4 -8.1999999999999995e-01 6.8848703828130162e+00 2.8902794591963787e+00 1.1412307934907563e+01 -4 4 1
6294 2098 3 4.0999999999999998e-01 5.3389011174196623e+00 5.5657815225404024e+00 1.0903833702288912e+01 3 -2 -2
4681 1561 3 4.0999999999999998e-01 9.2798510547209145e-01 6.7836223037283121e+00 1.3651151722106741e+01 0 -1 4
274 92 3 4.0999999999999998e-01 8.5679707096803615e+00 5.0922734449372742e+00 2.0039361979707984e+01 0 -2 2
145 49 3 4.0999999999999998e-01 2.2956377352205060e-01 6.2010586863752737e+00 1.8534245106137107e+01 1 -3 0
3073 1025 3 4.0999999999999998e-01 5.0856934721663167e+00 1.8334874633818636e+00 1.9923307559685199e+01 1 0 4
1146 382 3 4.0999999999999998e-01 3.6530115612802248e+00 2.5687637298779751e+00 1.2169542736689293e+01 2 0 0
1465 489 3 4.0999999999999998e-01 9.6174563594891112e+00 2.7016694403170169e+00 1.0708140496707703e+01 3 2 4
5729 1910 4 -8.1999999999999995e-01 5.7009123274649935e+00 8.3563758805044959e+00 1.2552771986289567e+01 4 -3 3
6159 2053 3 4.0999999999999998e-01 7.3388962941466362e-01 2.4770990909362944e+00 1.1212203242269005e+01 -1 5 -1
5460 1820 3 4.0999999999999998e-01 7.2903574436226206e+00 1.0209718240462882e+01 1.7327173216128163e+01 1 -2 1
3152 1051 4 -8.1999999999999995e-01 6.7029887858917436e-01 1.0179172984558045e+01 1.6574084842939460e+01 -2 -1 1
5932 1978 3 4.0999999999999998e-01 1.0178607483933916e+01 1.7802504062800470e+00 1.2852938925668695e+01 2 -2 2
6292 2098 3 4.0999999999999998e-01 4.1266856611936324e+00 4.4543566224819138e+00 1.0672731394472688e+01 3 -2 -2
510 170 3 4.0999999999999998e-01 5.7878096089115596e+00 1.0524101279264599e+01 1.5285565897797849e+01 4 2 1
5664 1888 3 4.0999999999999998e-01 9.4213949252328391e+00 8.0967173939991106e+00 1.5179233991553815e+01 0 1 1
1169 390 4 -8.1999999999999995e-01 7.3172838720945299e-01 3.3949656792537186e+00 1.6264640874801348e+01 -1 2 -3
6910 2304 3 4.0999999999999998e-01 9.9278533946397989e+00 2.6145003337808537e+00 1.5444035291464967e+01 5 -3 -2
1536 512 3 4.0999999999999998e-01 2.5942686589397295e+00 2.6418537153808717e+00 2.0800855751859789e+01 4 5 -2
1810 604 3 4.0999999999999998e-01 8.8614408749194968e+00 8.4776368101900630e+00 2.0928933128288051e+01 0 0 0
263 88 4 -8.1999999999999995e-01 9.2001938652175674e+00 7.2047264807028748e+00 2.2351844361196228e+01 3 5 3
2669 890 4 -8.1999999999999995e-01 3.2827972653776034e+00 3.1773287821775620e+00 2.7310535565058007e+01 3 -2 0
5807 1936 4 -8.1999999999999995e-01 1.3414166947421842e+00 1.3502255532746217e+00 2.6930496318005630e+01 -2 -1 1
1801 601 3 4.0999999999999998e-01 3.7213408407886210e+00 7.8610679828543244e+00 2.1331557617326744e+01 -1 4 0
1321 441 3 4.0999999999999998e-01 7.4774966277678665e+00 3.1948345908466966e+00 2.8634525707343197e+01 2 4 -1
1322 441 4 -8.1999999999999995e-01 8.3336891375551563e+00 2.5963790650820697e+00 2.8408270524826584e+01 2 4 -1
5755 1919 3 4.0999999999999998e-01 1.5248127928239992e+00 2.2710775777238186e+00 3.0676397691825727e+01 0 -3 -1
827 276 4 -8.1999999999999995e-01 3.3078596966843143e+00 2.1837085223622590e+00 2.9992719167533270e+01 1 -1 0
2670 890 3 4.0999999999999998e-01 3.1514164390213089e+00 4.1960813454601187e+00 2.7230173945121173e+01 3 -2 0
4012 1338 3 4.0999999999999998e-01 1.0561748297482419e+01 7.7309198392447787e+00 3.0506139987892478e+01 2 -3 5
6014 2005 4 -8.1999999999999995e-01 6.6327570232757758e+00 3.4463863848749545e+00 2.3632445088067449e+01 2 -2 2
1554 518 3 4.0999999999999998e-01 7.7438864659822393e+00 8.4234788115679233e+00 2.4373165461896772e+01 2 4 -3
262 88 3 4.0999999999999998e-01 1.0147481860671569e+01 7.2449456125196772e+00 2.2116791976047903e+01 3 5 3
6916 2306 3 4.0999999999999998e-01 7.6416689003466542e+00 4.1106251421361293e+00 2.6297440751519570e+01 0 3 -1
3332 1111 4 -8.1999999999999995e-01 1.0056025989343985e+01 4.1271804866046278e+00 3.0450446826720640e+01 6 3 -2
6917 2306 4 -8.1999999999999995e-01 7.7226875589828659e+00 4.9065662129921703e+00 2.5670734542421076e+01 0 3 -1
242 81 4 -8.1999999999999995e-01 6.0728383910777755e+00 1.0204928027575548e+01 2.1846041997849277e+01 2 2 2
780 260 3 4.0999999999999998e-01 4.7839583356525859e+00 3.1795442823579206e-01 2.4219135066503188e+01 5 2 -1
403 135 3 4.0999999999999998e-01 1.7756004888630141e+00 5.4211454298654411e+00 2.4938003384860369e+01 -1 0 -1
405 135 3 4.0999999999999998e-01 1.9995415495829167e+00 4.0133130135299826e+00 2.4015729712331414e+01 -1 0 -1
3729 1243 3 4.0999999999999998e-01 9.3020966751485581e+00 7.5073359747103563e+00 2.6034284080389984e+01 1 1 -3
5806 1936 3 4.0999999999999998e-01 1.5748945604386755e+00 4.1046128790558445e-01 2.6554728428448392e+01 -2 -1 1
3269 1090 4 -8.1999999999999995e-01 7.7190924967877219e+00 2.6271588466053224e+00 2.1416919056355990e+01 -2 1 0
6449 2150 4 -8.1999999999999995e-01 5.6061814621030939e+00 2.8767353134136675e+00 2.6146048455854928e+01 2 0 4
6289 2097 3 4.0999999999999998e-01 8.9497101585557122e+00 3.6220385929352256e-01 2.5721010707288379e+01 -3 -2 1
404 135 4 -8.1999999999999995e-01 2.1904731339738102e+00 5.0393685170753777e+00 2.4058976350793682e+01 -1 0 -1
7173 2391 3 4.0999999999999998e-01 1.4303090833624776e+00 6.7956232940343346e+00 2.1272838994355752e+01 2 -4 -3
2020 674 3 4.0999999999999998e-01 2.7324726078686559e+00 5.7501194561023485e+00 2.8914455965995476e+01 -2 -2 4
3728 1243 4 -8.1999999999999995e-01 9.5003697079687530e+00 6.6663192808277136e+00 2.6587781782645465e+01 1 1 -3