LAMMPS data file via write_data, version 5 Jun 2019, timestep = 16000000

7349 atoms
5 atom types
4899 bonds
2 bond types
2451 angles
2 angle types
1 impropers
1 improper types

1.5519297081455363e-01 4.1845807029189409e+01 xlo xhi
1.5469297081455124e-01 4.1845307029189406e+01 ylo yhi
1.5469297081455124e-01 4.1845307029189406e+01 zlo zhi

#Masses
#
#1 12.01
#2 40.08
#3 1.01
#4 16
#5 16
#
#Bond Coeffs # harmonic
#
#1 20.4246 1.3042
#2 22.965 1.012

Atoms # full

5356 1786 3 4.0999999999999998e-01 1.9274379397501087e+00 7.2581281036479046e+00 4.1879752978905778e+00 2 4 -3
5980 1994 3 4.0999999999999998e-01 4.4814902610155132e+00 7.5212838034940441e+00 8.1300968887435776e-01 4 0 1
5047 1683 3 4.0999999999999998e-01 5.6993688091510339e+00 5.8972429538502995e+00 3.1947621462870890e+00 1 1 -1
3467 1156 4 -8.1999999999999995e-01 3.7384571436689833e+00 3.0626963878574966e+00 3.7110666732248729e+00 6 -2 2
4009 1337 3 4.0999999999999998e-01 7.3360353074780971e+00 1.8074067017088551e+00 8.4033976061655871e+00 4 1 -1
5271 1757 3 4.0999999999999998e-01 1.0460939704484279e+01 1.0234985717296354e+01 1.0813865553494919e+00 -1 4 1
2448 816 3 4.0999999999999998e-01 6.3321899476447916e+00 9.6306368098927333e+00 6.7341141503252828e+00 3 2 1
2723 908 4 -8.1999999999999995e-01 6.0991044978998614e+00 9.6313919705535511e-01 2.0600345443660499e+00 1 0 -1
375 125 3 4.0999999999999998e-01 1.2579239349433955e+00 5.7265778194233388e+00 2.0239605450171276e+00 0 -5 -1
3466 1156 3 4.0999999999999998e-01 4.2826747587279739e+00 3.7027782289717566e+00 4.2330328355788254e+00 6 -2 2
6127 2043 3 4.0999999999999998e-01 4.1384786699604224e+00 4.3579662043372007e+00 3.3713082268301298e-01 1 -1 1
6501 2167 3 4.0999999999999998e-01 8.5543861980853908e+00 4.1859285768422385e+00 5.1333025463381237e+00 -6 2 -3
2061 687 3 4.0999999999999998e-01 3.2678231872657664e+00 9.8278166981794133e+00 2.2058795558170363e+00 2 4 4
142 48 3 4.0999999999999998e-01 7.0427362737709842e+00 3.8485566843614527e+00 7.3256216272633470e+00 -3 -1 0
5148 1716 3 4.0999999999999998e-01 7.7198137491963714e-01 2.5644937993002253e+00 9.2489156536899539e+00 1 -1 -3
5147 1716 4 -8.1999999999999995e-01 9.7738761008113140e-01 1.8271466144645683e+00 8.5924044702378524e+00 1 -1 -3
4022 1341 4 -8.1999999999999995e-01 9.8641154671335265e+00 6.8173607860125225e+00 9.5266415403432916e+00 -4 2 -3
5982 1994 3 4.0999999999999998e-01 4.2648667572955947e+00 7.8195961678237165e+00 2.4406074376070706e+00 4 0 1
1966 656 3 4.0999999999999998e-01 1.9868063827183673e+00 6.8844260048990347e-01 2.9400572036464347e+00 0 0 -3
4957 1653 3 4.0999999999999998e-01 8.0631682033901484e+00 3.8451079685032932e+00 1.2754555469824920e+00 -3 4 1
1968 656 3 4.0999999999999998e-01 2.2539599349253039e+00 2.1580382868832237e+00 3.5781389874068155e+00 0 0 -3
2658 886 3 4.0999999999999998e-01 9.8379886881025840e+00 4.8183470883826485e-01 6.1468406169188778e+00 5 -3 2
1763 588 4 -8.1999999999999995e-01 4.2216814401429561e+00 8.9806818440686662e+00 3.8024573149982634e+00 2 -1 1
4623 1541 3 4.0999999999999998e-01 3.7259608331658138e+00 1.2627579180607615e+00 9.6715619655411231e+00 -2 -4 0
6425 2142 4 -8.1999999999999995e-01 2.3654295667156853e+00 1.0413245991886122e+01 9.6203252475178758e+00 5 3 1
2447 816 4 -8.1999999999999995e-01 5.8877115775697018e+00 9.1994363979025895e+00 5.8913740733249504e+00 3 2 1
5981 1994 4 -8.1999999999999995e-01 4.2075930817836955e+00 7.0754072650135464e+00 1.6888401996941029e+00 4 0 1
3101 1034 4 -8.1999999999999995e-01 6.0554149225234939e+00 4.7911556781946851e+00 1.0145203002347181e+01 2 3 2
5357 1786 4 -8.1999999999999995e-01 1.3250246175477096e+00 6.5398457308322575e+00 3.7361740334636915e+00 2 4 -3
5358 1786 3 4.0999999999999998e-01 1.3641623607637241e+00 5.6938157455657095e+00 4.3322510463423720e+00 2 4 -3
6424 2142 3 4.0999999999999998e-01 2.1605026988264684e+00 9.5284993120712524e+00 9.1617002908647969e+00 5 3 1
4023 1341 3 4.0999999999999998e-01 9.7322543565120068e+00 7.1873647308559976e+00 8.5747202530355651e+00 -4 2 -3
2017 673 3 4.0999999999999998e-01 2.4955134916732677e+00 5.0181413122041443e+00 9.2622791255151675e+00 5 -2 4
5739 1913 3 4.0999999999999998e-01 9.9942230715085749e+00 3.9412199280408160e+00 8.7028499541540647e+00 1 3 1
3468 1156 3 4.0999999999999998e-01 4.3914341274625448e+00 2.5181123463202457e+00 3.1152275751320087e+00 6 -2 2
7101 2367 3 4.0999999999999998e-01 6.8963399012003208e+00 5.7905173376349595e+00 6.2332007611472973e+00 0 1 3
2724 908 3 4.0999999999999998e-01 6.4585103148501961e+00 1.8684455718664197e+00 1.8635786685089624e+00 1 0 -1
335 112 4 -8.1999999999999995e-01 2.1609511121369542e+00 8.3126391869289424e+00 5.6140709412674106e+00 1 -1 -2
1302 434 3 4.0999999999999998e-01 8.6738512667929015e+00 2.1267341372250734e-01 4.5647220031639391e+00 1 4 -5
1619 540 4 -8.1999999999999995e-01 2.8709147331413276e+00 7.7423654070043408e+00 8.8144511596140429e+00 2 0 0
5890 1964 3 4.0999999999999998e-01 4.5510028541309087e+00 6.1449467198232339e+00 7.1351870184380912e+00 -3 0 2
3108 1036 3 4.0999999999999998e-01 7.3230432440978612e+00 8.8572506655138827e+00 4.7591674769894396e+00 2 -1 0
637 213 3 4.0999999999999998e-01 3.7114565751114076e-01 1.0113859183211494e+01 4.5515012360573026e+00 -1 0 1
639 213 3 4.0999999999999998e-01 1.1134053671902193e+00 1.0376470681833689e+01 2.9923677411733838e+00 -1 0 1
1388 463 4 -8.1999999999999995e-01 1.2318036823821081e+00 4.7325297955234431e+00 5.5830528879876837e+00 -4 4 1
7134 2378 3 4.0999999999999998e-01 2.6059098846974278e+00 4.8621608335292148e+00 6.4069991402061897e+00 2 5 -1
7100 2367 4 -8.1999999999999995e-01 7.6367149854666820e+00 5.1753658160205598e+00 6.6284597480209131e+00 0 1 3
6499 2167 3 4.0999999999999998e-01 8.3201825796175974e+00 2.7044782959253419e+00 4.3949024713674723e+00 -6 2 -3
4021 1341 3 4.0999999999999998e-01 9.4741898862747238e+00 5.8465765907128731e+00 9.6501145502162942e+00 -4 2 -3
2657 886 4 -8.1999999999999995e-01 1.0159027007670177e+01 4.5714726556723545e-01 7.1297930794943225e+00 5 -3 2
359 120 4 -8.1999999999999995e-01 5.6045014196495240e+00 7.6870122962285752e+00 9.8143165206137706e+00 2 3 -1
6129 2043 3 4.0999999999999998e-01 4.4760287464070316e+00 5.5478878800835973e+00 1.3499798234965565e+00 1 -1 1
1301 434 4 -8.1999999999999995e-01 9.0240220511629019e+00 1.1716279612303813e+00 4.7742989851911979e+00 1 4 -5
1618 540 3 4.0999999999999998e-01 3.2634313937577950e+00 7.4125138665179984e+00 9.7055545379892987e+00 2 0 0
6930 2310 3 4.0999999999999998e-01 8.5322157701652959e+00 1.6409674504468100e-01 1.9128100258738294e+00 2 1 2
5270 1757 4 -8.1999999999999995e-01 9.6884557909026139e+00 1.0530893569611623e+01 4.4858853201009802e-01 -1 4 1
3102 1034 3 4.0999999999999998e-01 5.9364091327474631e+00 5.7885232040690440e+00 9.9761441640959667e+00 2 3 2
4959 1653 3 4.0999999999999998e-01 6.4127929691542427e+00 3.8650045853499742e+00 8.2878512892917666e-01 -3 4 1
1300 434 3 4.0999999999999998e-01 9.8859421146860207e+00 1.3212327085211015e+00 4.1557174754467470e+00 1 4 -5
108 36 3 4.0999999999999998e-01 8.1538061442631804e+00 1.0340892871032056e+01 1.4033934159644557e+00 2 -1 2
2018 673 4 -8.1999999999999995e-01 2.5235503411993379e+00 5.1099955571750648e+00 1.0280532283766085e+01 5 -2 4
5049 1683 3 4.0999999999999998e-01 7.1681052645796992e+00 5.1722244047426775e+00 3.5265505971189870e+00 1 1 -1
4723 1575 3 4.0999999999999998e-01 9.8841412092491066e+00 5.5158471206771349e+00 2.0763159170699899e+00 2 -5 4
4958 1653 4 -8.1999999999999995e-01 7.2388839566978040e+00 3.2584727359479042e+00 8.8560608207056724e-01 -3 4 1
358 120 3 4.0999999999999998e-01 5.4290504607272867e+00 8.7006562413338280e+00 9.5637005496626966e+00 2 3 -1
4725 1575 3 4.0999999999999998e-01 9.1105045693649043e+00 4.2854660764607857e+00 2.8716563192788649e+00 2 -5 4
7133 2378 4 -8.1999999999999995e-01 3.5581940898632363e+00 4.7384122832420159e+00 6.8689790330141607e+00 2 5 -1
334 112 3 4.0999999999999998e-01 1.7790908844224298e+00 7.6330138204382312e+00 6.2378718755384819e+00 1 -1 -2
143 48 4 -8.1999999999999995e-01 6.4943210714412931e+00 3.1999716024959737e+00 8.0068131631981458e+00 -3 -1 0
144 48 3 4.0999999999999998e-01 6.2675142329603304e+00 3.6467437276605943e+00 8.9201731346297901e+00 -3 -1 0
5048 1683 4 -8.1999999999999995e-01 6.6002188400409558e+00 6.0783373467255828e+00 3.5841858142621792e+00 1 1 -1
5819 1940 4 -8.1999999999999995e-01 8.8734262032389850e+00 4.2479840344154711e+00 1.0101763652615306e+01 -2 3 2
6500 2167 4 -8.1999999999999995e-01 8.3568657701771567e+00 3.7436140707557217e+00 4.2248601944290431e+00 -6 2 -3
107 36 4 -8.1999999999999995e-01 7.3047150559025145e+00 1.0081586898745776e+01 1.9303880535889901e+00 2 -1 2
1764 588 3 4.0999999999999998e-01 5.0558100904297989e+00 9.2179068281094114e+00 4.3214219163296415e+00 2 -1 1
1400 467 4 -8.1999999999999995e-01 9.8125007951199059e+00 7.5395463637772249e+00 6.8892206729088166e+00 -1 1 0
3107 1036 4 -8.1999999999999995e-01 8.0366739568296630e+00 8.3904842310741401e+00 4.1743911153850304e+00 2 -1 0
2722 908 3 4.0999999999999998e-01 5.4834025245211473e+00 8.2032729353070610e-01 1.2804556225092303e+00 1 0 -1
5891 1964 4 -8.1999999999999995e-01 5.1177070453423932e+00 6.9842730802828008e+00 7.1815497588206272e+00 -3 0 2
1522 508 3 4.0999999999999998e-01 8.1755493538831878e+00 8.9507205792668767e+00 7.4721934684838187e+00 -2 0 1
5146 1716 3 4.0999999999999998e-01 1.9837045324231364e+00 1.7590889122656748e+00 8.5383897114114067e+00 1 -1 -3
1620 540 3 4.0999999999999998e-01 3.6480227223871156e+00 7.7612263484858932e+00 8.2116545043578704e+00 2 0 0
7099 2367 3 4.0999999999999998e-01 8.4690752773783604e+00 5.7401559067802301e+00 6.8322878732218335e+00 0 1 3
5892 1964 3 4.0999999999999998e-01 5.6163520229094983e+00 6.9744711385738336e+00 8.0926820952621199e+00 -3 0 2
7132 2378 3 4.0999999999999998e-01 3.6758233535784224e+00 3.8007488725715968e+00 7.2834006963942244e+00 2 5 -1
3106 1036 3 4.0999999999999998e-01 7.6490213346608558e+00 7.4578672592813007e+00 3.9188156785052564e+00 2 -1 0
1034 345 4 -8.1999999999999995e-01 4.0912408955011754e+00 1.9168725863354552e+00 7.8764501998425702e+00 2 2 -3
4010 1337 4 -8.1999999999999995e-01 7.8832044460272144e+00 1.0161072271689167e+00 8.7998433863126380e+00 4 1 -1
1523 508 4 -8.1999999999999995e-01 7.7172388373972991e+00 9.5591996141540747e+00 8.0926239469602965e+00 -2 0 1
1033 345 3 4.0999999999999998e-01 5.1019277507616243e+00 2.2408669432201878e+00 7.9350649484508331e+00 2 2 -3
1762 588 3 4.0999999999999998e-01 3.5394968805726790e+00 8.7392323305888517e+00 4.5377602915544113e+00 2 -1 1
2446 816 3 4.0999999999999998e-01 5.5590882839235469e+00 8.2475008987810501e+00 6.1963349526080478e+00 3 2 1
1113 371 3 4.0999999999999998e-01 9.7962259087260595e+00 8.8062216569186678e+00 3.7220928722269813e+00 -4 -1 4
4724 1575 4 -8.1999999999999995e-01 9.3203871566412992e+00 4.6605337375588123e+00 1.8936322255540798e+00 2 -5 4
1387 463 3 4.0999999999999998e-01 1.3563147970232916e+00 3.7572886780097114e+00 5.3119812013546150e+00 -4 4 1
5775 1925 3 4.0999999999999998e-01 6.3502853202636365e+00 8.7546899469502026e+00 2.5154658757215703e-01 -3 2 0
106 36 3 4.0999999999999998e-01 7.5633258422573864e+00 9.3385111481411016e+00 2.5966836783879428e+00 2 -1 2
1035 345 3 4.0999999999999998e-01 3.9369605738003273e+00 9.5853212491062034e-01 7.5602932077197904e+00 2 2 -3
336 112 3 4.0999999999999998e-01 2.2822651337621211e+00 9.2237227200562337e+00 6.1385973926995154e+00 1 -1 -2
2060 687 4 -8.1999999999999995e-01 2.2993394175041408e+00 1.0163324498712885e+01 1.9938355878551344e+00 2 4 4
2827 943 3 4.0999999999999998e-01 9.5104438925359354e+00 4.1492799670001101e+00 2.7211393280070517e-01 -2 3 2
6281 2094 4 -8.1999999999999995e-01 1.7889685442918544e+00 8.3349999449421173e+00 1.5657388304133216e-01 -2 -2 -1
6128 2043 4 -8.1999999999999995e-01 4.8850700582185222e+00 4.6533978876564248e+00 9.7678290457491090e-01 1 -1 1
1112 371 4 -8.1999999999999995e-01 1.0512622883612092e+01 9.4084820986265552e+00 3.3258238735614767e+00 -4 -1 4
4011 1337 3 4.0999999999999998e-01 8.8599872196951051e+00 1.0842008168368933e+00 8.5593945748998443e+00 4 1 -1
2059 687 3 4.0999999999999998e-01 2.1062792945026083e+00 9.6046536069351269e+00 1.1405235305735413e+00 2 4 4
374 125 4 -8.1999999999999995e-01 1.1536286649090399e+00 5.6883699750189942e+00 1.0197361308443529e+00 0 -5 -1
1967 656 4 -8.1999999999999995e-01 1.4508502585684584e+00 1.4353532181192430e+00 3.4113490435480305e+00 0 0 -3
1399 467 3 4.0999999999999998e-01 1.0002429464057375e+01 8.5610869180810667e+00 6.7975738430115307e+00 -1 1 0
5820 1940 3 4.0999999999999998e-01 7.8538795447385272e+00 4.2167660180344679e+00 1.0180693496259625e+01 -2 3 2
6426 2142 3 4.0999999999999998e-01 3.1711209521308756e+00 1.0235316915688660e+01 1.0236477457614653e+01 5 3 1
2364 788 3 4.0999999999999998e-01 9.7513491942732760e+00 1.0567393639642054e+01 1.0131084357730010e+01 0 3 -1
2160 720 3 4.0999999999999998e-01 9.4427016896486582e-01 6.9643473473418327e+00 8.2230089267809348e+00 2 -2 0
6282 2094 3 4.0999999999999998e-01 1.5992619316704157e+00 7.6492023096194384e+00 8.5205295512024526e-01 -2 -2 -1
132 44 3 4.0999999999999998e-01 9.7087851410831956e+00 8.3297951525159828e+00 1.0418554432420661e+01 0 2 -2
1524 508 3 4.0999999999999998e-01 8.3146610063056610e+00 9.9391445126922662e+00 8.8073859184587509e+00 -2 0 1
804 268 3 4.0999999999999998e-01 7.8214975577992547e+00 9.4254736703647102e-01 1.0298381328290915e+01 0 -2 1
373 125 3 4.0999999999999998e-01 1.8861218090725864e+00 5.1968129769021987e+00 5.3978231893950313e-01 0 -5 -1
4094 1365 4 -8.1999999999999995e-01 1.0369775368227288e+01 1.0025689407670079e+01 6.2508648511215412e+00 -1 1 1
2930 977 4 -8.1999999999999995e-01 4.6986364821337974e+00 4.8275474672983592e+00 1.9257721198997995e+01 1 -3 4
2131 711 3 4.0999999999999998e-01 8.3406593168780407e+00 3.2235388897713015e+00 1.9085375123900675e+01 -3 3 2
5250 1750 3 4.0999999999999998e-01 8.1340374278140875e+00 1.0375593782992376e+00 1.3861726397928706e+01 0 3 2
5022 1674 3 4.0999999999999998e-01 5.2323173869445379e+00 9.4939651709092363e+00 1.5410089067245414e+01 -4 4 -2
4622 1541 4 -8.1999999999999995e-01 3.9180550925774384e+00 9.5079124856962371e-01 1.0657505336339645e+01 -2 -4 0
2598 866 3 4.0999999999999998e-01 4.5645485422505305e-01 8.4465368233730658e+00 1.8615411993764951e+01 -2 -1 2
6478 2160 3 4.0999999999999998e-01 5.6317203601614567e+00 3.2929800138820857e+00 1.8604807607280904e+01 0 3 1
503 168 4 -8.1999999999999995e-01 4.1642729639671492e+00 3.5966148615857771e+00 1.1681730605478345e+01 1 3 -1
6309 2103 3 4.0999999999999998e-01 7.4756757792940887e+00 7.8428138966628662e+00 1.2719927594694235e+01 0 1 2
6480 2160 3 4.0999999999999998e-01 6.9650917572617317e+00 2.4445348393993793e+00 1.7980865986534841e+01 0 3 1
2931 977 3 4.0999999999999998e-01 3.7300858349351595e+00 4.8292067777343579e+00 1.9034465196811833e+01 1 -3 4
6572 2191 4 -8.1999999999999995e-01 2.2509256681624631e-01 3.5272061262148715e+00 1.5859057390473085e+01 3 -5 3
2614 872 3 4.0999999999999998e-01 9.2910367602497335e+00 5.6536524992061770e+00 1.4464392998587499e+01 0 3 -1
4508 1503 4 -8.1999999999999995e-01 8.4420448323042951e-01 9.9143536577496576e+00 1.3030704317563895e+01 0 -1 -2
2045 682 4 -8.1999999999999995e-01 1.1737626801707681e+00 6.8187607388015561e+00 1.5282488791472359e+01 1 2 -2
1526 509 4 -8.1999999999999995e-01 5.0581604112392915e+00 6.1931072435085599e-01 1.5939781651780924e+01 5 2 -2
976 326 3 4.0999999999999998e-01 9.0786584148626268e+00 7.9377287473531073e+00 1.9549681717454316e+01 -3 4 2
502 168 3 4.0999999999999998e-01 3.6060722200325523e+00 4.1341594685137855e+00 1.0970363136121263e+01 1 3 -1
5249 1750 4 -8.1999999999999995e-01 7.3135457285141303e+00 5.3326610750511982e-01 1.4261232207061449e+01 0 3 2
6672 2224 3 4.0999999999999998e-01 8.4108888889653031e+00 7.7876153709185987e+00 1.6348591661627175e+01 -1 -3 1
1527 509 3 4.0999999999999998e-01 5.4380767353633743e+00 1.3666453261221738e+00 1.6565341489677849e+01 5 2 -2
926 309 4 -8.1999999999999995e-01 8.0267884035572354e+00 9.3058121342309406e+00 1.3898135455808328e+01 2 1 3
2616 872 3 4.0999999999999998e-01 1.0280674252894658e+01 6.0575525088199331e+00 1.3295106021201088e+01 0 3 -1
5627 1876 4 -8.1999999999999995e-01 1.9192744106366206e+00 9.8268927764285277e+00 1.6017810223071699e+01 2 1 1
2046 682 3 4.0999999999999998e-01 1.3760888783629894e+00 7.5086597051401860e+00 1.4611686667853700e+01 1 2 -2
2132 711 4 -8.1999999999999995e-01 8.8249807817506944e+00 3.1362337567242489e+00 1.8171500407538815e+01 -3 3 2
802 268 3 4.0999999999999998e-01 7.1036244822266319e+00 3.6345301774750610e-01 1.1678096195336604e+01 0 -2 1
1172 391 4 -8.1999999999999995e-01 2.9426752622619343e+00 2.0642773988352028e+00 1.4783538886551032e+01 1 1 -2
360 120 3 4.0999999999999998e-01 6.0489609265037840e+00 7.7251639014275835e+00 1.0727719565692283e+01 2 3 -1
4621 1541 3 4.0999999999999998e-01 4.0891628997220684e+00 1.8107048097768896e+00 1.1204743150423647e+01 -2 -4 0
5162 1721 4 -8.1999999999999995e-01 3.8120359759236617e+00 9.3120010834964688e+00 1.9506337285580322e+01 6 1 1
6479 2160 4 -8.1999999999999995e-01 5.8962944356914022e+00 2.4154414448403450e+00 1.8102310319298546e+01 0 3 1
6740 2247 4 -8.1999999999999995e-01 1.2179237599475137e+00 9.2530888872143020e+00 1.9620844689795856e+01 -1 3 3
3501 1167 3 4.0999999999999998e-01 9.2287920815655866e+00 6.3249682337524957e+00 1.7937050236818077e+01 2 2 0
5628 1876 3 4.0999999999999998e-01 1.8858606601749839e+00 9.8998099176772225e+00 1.4987049803000343e+01 2 1 1
5312 1771 4 -8.1999999999999995e-01 4.3150003327218061e+00 8.5419677544436716e+00 1.6207612469671535e+01 -2 3 0
5355 1785 3 4.0999999999999998e-01 3.5966245803655039e+00 7.1779082757238895e+00 1.2175106368305187e+01 0 5 -3
2500 834 3 4.0999999999999998e-01 5.3678253168372123e+00 6.4209036464583669e+00 1.8860198920664054e+01 0 -2 2
6911 2304 4 -8.1999999999999995e-01 1.1817294569792223e+00 3.5001683980387877e-01 1.3740962805622859e+01 4 -2 -1
5163 1721 3 4.0999999999999998e-01 4.4737859952874821e+00 8.7337191038419242e+00 1.8994591772642156e+01 6 1 1
977 326 4 -8.1999999999999995e-01 8.6467873226822398e+00 7.7852965858049252e+00 1.8610434309409950e+01 -3 4 2
1173 391 3 4.0999999999999998e-01 2.2814751499822781e+00 1.3675648831768137e+00 1.4414144271477854e+01 1 1 -2
3500 1167 4 -8.1999999999999995e-01 9.7309441410518378e+00 5.5430721209311304e+00 1.7566493510511911e+01 2 2 0
4507 1503 3 4.0999999999999998e-01 1.0550551339864547e+00 8.9449185261764370e+00 1.2853971831761070e+01 0 -1 -2
2044 682 3 4.0999999999999998e-01 7.2588672010839472e-01 7.2035644616532135e+00 1.6110378044209558e+01 1 2 -2
3499 1167 3 4.0999999999999998e-01 9.3775280859269934e+00 5.1630948522061813e+00 1.6715356005739441e+01 2 2 0
130 44 3 4.0999999999999998e-01 9.6713344879265399e+00 8.9902071148971867e+00 1.1913938043561261e+01 0 2 -2
504 168 3 4.0999999999999998e-01 3.6464195480109542e+00 3.8287621504444940e+00 1.2559687138799154e+01 1 3 -1
4607 1536 4 -8.1999999999999995e-01 2.5349560326111237e-01 7.0903876807373267e+00 1.2050104264349292e+01 0 -2 0
6308 2103 4 -8.1999999999999995e-01 6.7966191345567992e+00 7.1753360274680302e+00 1.2314109393566561e+01 0 1 2
2461 821 3 4.0999999999999998e-01 9.3130389651168457e+00 3.5832522114576393e+00 1.2783395526217046e+01 5 2 -1
925 309 3 4.0999999999999998e-01 8.8564789551253220e+00 9.7626607956294578e+00 1.3949777708869890e+01 2 1 3
2502 834 3 4.0999999999999998e-01 6.6880960544159125e+00 7.5438303203673387e+00 1.8529427818669209e+01 0 -2 2
978 326 3 4.0999999999999998e-01 8.5770326668189405e+00 8.6658599034329953e+00 1.8058303073505506e+01 -3 4 2
182 61 4 -8.1999999999999995e-01 1.8189379827923720e+00 2.3176307066691741e+00 1.8274643479967040e+01 1 4 1
4983 1661 3 4.0999999999999998e-01 3.0375910956615670e+00 3.7926788286043380e+00 1.4541269020074902e+01 1 -2 4
5161 1721 3 4.0999999999999998e-01 4.1510806893556174e+00 1.0274699360174603e+01 1.9470877683990739e+01 6 1 1
1948 650 3 4.0999999999999998e-01 4.0065881333592959e+00 5.7917034777846181e+00 1.4054430561183558e+01 -1 -2 -1
1729 577 3 4.0999999999999998e-01 1.2399486216444793e+00 5.4389823962393358e+00 2.0086878645498217e+01 1 -2 -1
4981 1661 3 4.0999999999999998e-01 2.1207700894744548e+00 5.0690091007222620e+00 1.4324955370898357e+01 1 -2 4
268 90 3 4.0999999999999998e-01 1.0154630066902124e+01 2.0149881863199055e+00 1.7462651364871355e+01 -1 1 0
1949 650 4 -8.1999999999999995e-01 4.6281269152222020e+00 6.6279217064019340e+00 1.4059422863616319e+01 -1 -2 -1
181 61 3 4.0999999999999998e-01 2.7885858433107753e+00 2.4955382764334249e+00 1.8186966065607788e+01 1 4 1
2133 711 3 4.0999999999999998e-01 9.2847378863525609e+00 4.0750560684332475e+00 1.7882309739059238e+01 -3 3 2
626 209 4 -8.1999999999999995e-01 4.1966242138798346e+00 1.0156401405644850e+01 1.1688527338176517e+01 0 -4 -1
6741 2247 3 4.0999999999999998e-01 1.2638262700957434e+00 8.8937871394744494e+00 2.0573924875258854e+01 -1 3 3
5263 1755 3 4.0999999999999998e-01 8.9111021042832963e+00 1.0454873702090262e+01 1.6580525719054108e+01 2 2 2
2501 834 4 -8.1999999999999995e-01 5.6665292500009157e+00 7.3282976913311080e+00 1.8532244904151050e+01 0 -2 2
5264 1755 4 -8.1999999999999995e-01 8.0925016762338373e+00 1.0219167901145772e+01 1.7085067796247198e+01 2 2 2
4982 1661 4 -8.1999999999999995e-01 2.9790549446754375e+00 4.6550655080912842e+00 1.3969777435184005e+01 1 -2 4
927 309 3 4.0999999999999998e-01 7.2776783063749626e+00 9.9701219383449970e+00 1.4184497090565229e+01 2 1 3
2463 821 3 4.0999999999999998e-01 8.8028526577597273e+00 2.1872076856262792e+00 1.1889362570607039e+01 5 2 -1
5354 1785 4 -8.1999999999999995e-01 2.8421780009623783e+00 7.7600020034458197e+00 1.1813977579604510e+01 0 5 -3
131 44 4 -8.1999999999999995e-01 9.4704906664581330e+00 9.2174449426803271e+00 1.0924091753138464e+01 0 2 -2
5998 2000 3 4.0999999999999998e-01 7.5157942481851157e+00 1.9279908003660893e+00 2.0659607888255263e+01 -1 0 2
6670 2224 3 4.0999999999999998e-01 8.6531946617788531e+00 7.9289765186455741e+00 1.4776372918745359e+01 -1 -3 1
1531 511 3 4.0999999999999998e-01 9.4790988529649702e+00 9.9346291476813224e+00 2.0837990132163828e+01 0 6 3
2615 872 4 -8.1999999999999995e-01 9.6467005415191291e+00 5.3324751925805263e+00 1.3614993528143829e+01 0 3 -1
803 268 4 -8.1999999999999995e-01 7.8630716893484021e+00 9.6466000230293669e-01 1.1336819520817260e+01 0 -2 1
6573 2191 3 4.0999999999999998e-01 1.1629712291062726e+00 3.2890797705158366e+00 1.6129008416408169e+01 3 -5 3
6307 2103 3 4.0999999999999998e-01 6.0591372913240358e+00 6.9575388095611599e+00 1.3093633771734371e+01 0 1 2
5248 1750 3 4.0999999999999998e-01 6.6793294870955942e+00 2.8815675682599434e-01 1.3457706423551487e+01 0 3 2
5021 1674 4 -8.1999999999999995e-01 5.8990901905710658e+00 1.0322830269133009e+01 1.5206284421549469e+01 -4 4 -2
1525 509 3 4.0999999999999998e-01 5.6566804061608433e+00 5.8716672046127349e-01 1.5064212772321277e+01 5 2 -2
1730 577 4 -8.1999999999999995e-01 2.0924088306032451e+00 5.2248422497058149e+00 2.0645693836388613e+01 1 -2 -1
2462 821 4 -8.1999999999999995e-01 9.6175087723085859e+00 2.8385877947960578e+00 1.2133483829754210e+01 5 2 -1
183 61 3 4.0999999999999998e-01 1.7500531043724517e+00 1.2568902339197141e+00 1.8066626763635664e+01 1 4 1
6671 2224 4 -8.1999999999999995e-01 8.8131984133752308e+00 7.3233475964640213e+00 1.5568857437226679e+01 -1 -3 1
1950 650 3 4.0999999999999998e-01 4.3879808606709449e+00 7.2769368436430755e+00 1.4857961001314431e+01 -1 -2 -1
5313 1771 3 4.0999999999999998e-01 3.4563244305046070e+00 9.0256268351006366e+00 1.6373256633423910e+01 -2 3 0
6739 2247 3 4.0999999999999998e-01 2.2125816338224968e+00 9.2219702671072845e+00 1.9348412143053672e+01 -1 3 3
5020 1674 3 4.0999999999999998e-01 6.6676319945843749e+00 1.0381890750806624e+01 1.5903844889101881e+01 -4 4 -2
5353 1785 3 4.0999999999999998e-01 1.9442447248061536e+00 7.2460311578505712e+00 1.1720786323367474e+01 0 5 -3
5311 1771 3 4.0999999999999998e-01 4.8263755373266912e+00 8.0998951039461797e+00 1.7050913807138524e+01 -2 3 0
5167 1723 3 4.0999999999999998e-01 7.9997138420591387e+00 6.8959764684419900e-01 1.7607587383199601e+01 -2 0 0
735 245 3 4.0999999999999998e-01 3.7995035674700022e+00 8.3515571647330091e+00 2.0739308785054980e+01 -3 1 1
1532 511 4 -8.1999999999999995e-01 9.4893049079461935e+00 8.9330365057302981e+00 2.0835856089501640e+01 0 6 3
1171 391 3 4.0999999999999998e-01 3.7163463780205017e+00 1.6247332169941939e+00 1.5227033183200758e+01 1 1 -2
627 209 3 4.0999999999999998e-01 3.9202261687502458e+00 9.1629548755187535e+00 1.1927820110521809e+01 0 -4 -1
2475 825 3 4.0999999999999998e-01 1.2466356107132408e+00 2.1948783754517724e+00 2.0602278784464840e+01 0 2 1
5999 2000 4 -8.1999999999999995e-01 7.5716171443086226e+00 2.8998662108534980e+00 2.0606847133340302e+01 -1 0 2
5626 1876 3 4.0999999999999998e-01 1.2704411414499550e+00 1.0466708476638189e+01 1.6448750102808599e+01 2 1 1
2929 977 3 4.0999999999999998e-01 4.7945316505133695e+00 4.3041446166419473e+00 2.0197372477523587e+01 1 -3 4
4509 1503 3 4.0999999999999998e-01 3.6865146560781664e-01 1.0497528387524619e+01 1.2300614359866088e+01 0 -1 -2
5169 1723 3 4.0999999999999998e-01 7.7499590271499796e+00 2.0087016535758848e-01 1.6028769452623703e+01 -2 0 0
6000 2000 3 4.0999999999999998e-01 6.7328840621254669e+00 3.3165045902344246e+00 2.0980731133337805e+01 -1 0 2
2473 825 3 4.0999999999999998e-01 1.4639052601237112e+00 5.8007224797475410e-01 2.0925557407135706e+01 0 2 1
5818 1940 3 4.0999999999999998e-01 9.2940278336286593e+00 3.7870089525236108e+00 1.0931433501372537e+01 -2 3 2
5109 1703 3 4.0999999999999998e-01 1.0573805599070408e+01 1.3116290689615333e+00 1.2162364951054371e+01 0 2 1
2019 673 3 4.0999999999999998e-01 1.5998921982428902e+00 4.8515636339699686e+00 1.0631036250231645e+01 5 -2 4
3100 1034 3 4.0999999999999998e-01 5.6266317259902774e+00 4.4870802440417172e+00 1.1002390824582340e+01 2 3 2
6605 2202 4 -8.1999999999999995e-01 9.9462320800678317e+00 1.8991635361358956e+00 2.4124988762437305e+01 1 -2 6
2264 755 4 -8.1999999999999995e-01 5.6059795430279538e+00 3.3539122949804354e+00 2.7899634815259510e+01 -2 -3 3
6398 2133 4 -8.1999999999999995e-01 8.7792983332139762e+00 4.1047309708440416e+00 2.9453970807045621e+01 0 -2 -3
6488 2163 4 -8.1999999999999995e-01 4.0059189444605731e-01 5.2108899078901887e+00 2.7689446017334753e+01 3 3 -3
6368 2123 4 -8.1999999999999995e-01 5.5524640292861465e+00 1.0425458228968893e+01 2.7123928716902736e+01 -2 4 2
275 92 4 -8.1999999999999995e-01 9.8624522412518125e+00 4.0747713988355159e+00 2.6970878965012432e+01 1 -3 1
733 245 3 4.0999999999999998e-01 3.7074899536545982e+00 6.7966002373162295e+00 2.1125129407360710e+01 -3 1 1
341 114 4 -8.1999999999999995e-01 5.3369781728233932e+00 7.7615635283060502e+00 2.8549934662800045e+01 2 1 2
5665 1889 3 4.0999999999999998e-01 1.5000712954563202e+00 1.2609533454416912e+00 3.0457240657116827e+01 0 0 0
4779 1593 3 4.0999999999999998e-01 5.6568876562439030e+00 4.4703814163306266e+00 2.4539128705937291e+01 0 1 2
5677 1893 3 4.0999999999999998e-01 7.0537238638286022e+00 7.8800255610841079e+00 2.2855456491812181e+01 2 2 -3
1533 511 3 4.0999999999999998e-01 9.0636696796708218e+00 8.5385247534735615e+00 2.1679201041001928e+01 0 6 3
6967 2323 3 4.0999999999999998e-01 7.0946575832927836e+00 8.9363561028221099e+00 2.5196324525650304e+01 -1 3 -1
2474 825 4 -8.1999999999999995e-01 1.0276751237277801e+00 1.4195877961044268e+00 2.1238111061384629e+01 0 2 1
5719 1907 3 4.0999999999999998e-01 1.0429330262011121e+01 6.2554838375687121e+00 2.9360581522823736e+01 0 5 -1
308 103 4 -8.1999999999999995e-01 2.8346379587377606e+00 3.5591700325075410e+00 2.5537966129251043e+01 -3 -2 4
276 92 3 4.0999999999999998e-01 9.9804342964133070e+00 3.1424968546473866e+00 2.6704178242029467e+01 1 -3 1
2155 719 3 4.0999999999999998e-01 2.0697381204646952e+00 7.9727080254528850e+00 2.2086751966800492e+01 1 1 0
3752 1251 4 -8.1999999999999995e-01 1.4754260113846760e+00 1.1979690980120385e+00 2.8660178688243111e+01 -2 1 -1
7209 2403 3 4.0999999999999998e-01 8.3387245043842135e+00 5.5421587141135715e+00 2.6810179543069314e+01 0 0 -4
6979 2327 3 4.0999999999999998e-01 8.8723426944843986e+00 3.2819413302171636e+00 2.1297769109801525e+01 -3 -1 0
1505 502 4 -8.1999999999999995e-01 5.2492719011504896e+00 3.6589026470905832e+00 2.1564578983251877e+01 0 1 -3
6847 2283 3 4.0999999999999998e-01 3.9573878341498303e+00 3.5150292268035224e+00 2.8226801575527031e+01 0 0 -1
5685 1895 3 4.0999999999999998e-01 6.6176881471156399e+00 2.2657270776657121e+00 2.4725405798476228e+01 1 -4 1
4662 1554 3 4.0999999999999998e-01 9.2252129614939840e+00 6.8070271217436726e+00 2.2023342061201795e+01 2 0 -1
4660 1554 3 4.0999999999999998e-01 9.8198030300622019e+00 5.3071859915455750e+00 2.1785452514272919e+01 2 0 -1
781 261 3 4.0999999999999998e-01 1.0292432681415313e+01 7.1618915161347960e+00 2.5570945768555571e+01 -1 4 2
5082 1694 3 4.0999999999999998e-01 4.4450651716442637e+00 7.7674783400022438e+00 2.3349255829865825e+01 -2 -3 3
5679 1893 3 4.0999999999999998e-01 8.1242975236759172e+00 8.9381766593581435e+00 2.3610059186230846e+01 2 2 -3
4465 1489 3 4.0999999999999998e-01 8.1852255587702949e-01 4.9452276806336481e+00 3.0714521534543749e+01 -1 2 -3
6399 2133 3 4.0999999999999998e-01 9.2386895894586569e+00 4.3123871503273170e+00 2.8575395070953153e+01 0 -2 -3
957 319 3 4.0999999999999998e-01 3.3533860065718426e+00 1.0281916333663519e+01 2.9185063624585823e+01 1 2 1
5790 1930 3 4.0999999999999998e-01 5.8328625280564967e+00 3.3759077489621714e-01 2.9006830698836396e+01 2 0 2
6503 2168 4 -8.1999999999999995e-01 3.5359643012541682e+00 7.1850634037769892e+00 3.0796438438815933e+01 1 1 2
5514 1838 3 4.0999999999999998e-01 9.2235299349018227e+00 1.0193050108880126e+00 2.5601851166239790e+01 -2 1 4
955 319 3 4.0999999999999998e-01 3.7191136814720060e+00 9.0219122669626213e+00 3.0163847217861079e+01 1 2 1
5513 1838 4 -8.1999999999999995e-01 8.7500255097787480e+00 1.0492262334168707e+00 2.6563303788984772e+01 -2 1 4