LAMMPS data file via write_data, version 5 Jun 2019, timestep = 23000000

7349 atoms
5 atom types
4899 bonds
2 bond types
2451 angles
2 angle types
1 impropers
1 improper types

1.5519297081455363e-01 4.1845807029189409e+01 xlo xhi
1.5469297081455124e-01 4.1845307029189406e+01 ylo yhi
1.5469297081455124e-01 4.1845307029189406e+01 zlo zhi

#Masses
#
#1 12.01
#2 40.08
#3 1.01
#4 16
#5 16
#
#Bond Coeffs # harmonic
#
#1 20.4246 1.3042
#2 22.965 1.012

Atoms # full

1106 369 4 -8.1999999999999995e-01 1.3315836758827155e+00 2.7244036818322046e+00 2.9573705786711386e+00 -2 3 4
4220 1407 4 -8.1999999999999995e-01 6.4921073003975396e+00 4.0183999856860266e+00 9.8791806730041429e+00 -2 -2 -3
4073 1358 4 -8.1999999999999995e-01 2.9190169722984165e+00 5.9406267106181314e+00 8.2388462335428461e+00 1 1 3
798 266 3 4.0999999999999998e-01 7.7658979304584308e-01 5.4071655970420265e+00 6.0673479248679527e+00 5 -2 -2
3331 1111 3 4.0999999999999998e-01 1.2382095504408448e+00 3.4319161291813720e+00 1.0084048338225095e+01 5 4 -2
1826 609 4 -8.1999999999999995e-01 5.8538389604221308e+00 1.4605452837092858e+00 1.0115233757383139e+01 -4 4 -1
5834 1945 4 -8.1999999999999995e-01 8.9869634796563815e+00 2.2679597209418026e-01 9.2006580496694443e+00 4 3 1
6400 2134 3 4.0999999999999998e-01 6.7802989327331993e+00 5.7567279672881941e+00 8.0882092945628887e+00 -3 4 -3
4072 1358 3 4.0999999999999998e-01 2.4126198280535922e+00 6.4138568923413253e+00 9.0072310857402940e+00 1 1 3
5851 1951 3 4.0999999999999998e-01 1.2598076949171753e+00 7.9461309157852222e-01 5.7414882761277752e+00 -2 2 3
5468 1823 4 -8.1999999999999995e-01 4.6554540805733504e+00 8.3781887178943890e+00 5.0107020375030338e+00 1 0 1
2193 731 3 4.0999999999999998e-01 6.2978888591004898e+00 6.3793326358431790e-01 8.5714178701658348e+00 6 2 -3
7230 2410 3 4.0999999999999998e-01 3.8246499496451287e+00 5.6264663905743362e+00 1.6018606720157060e+00 0 5 0
5510 1837 4 -8.1999999999999995e-01 9.8746277745743818e+00 8.4065501385466082e+00 9.5334055297014029e+00 3 1 2
2582 861 4 -8.1999999999999995e-01 1.3234954630200324e+00 2.2688652898777257e+00 5.5821370151185707e+00 5 5 2
4690 1564 3 4.0999999999999998e-01 1.4915164361913869e+00 9.5566129478206676e+00 7.2725669902555721e+00 1 -2 -1
6889 2297 3 4.0999999999999998e-01 4.8355684770028251e+00 2.8119032943591802e+00 3.4888247175633578e+00 0 0 3
5782 1928 3 4.0999999999999998e-01 2.9671527876455106e+00 6.1328952568206381e+00 5.3195079005238659e+00 -3 -1 -1
3280 1094 3 4.0999999999999998e-01 3.5986540727696297e+00 8.9194299093795537e-01 2.9592397263073384e+00 4 4 5
6725 2242 4 -8.1999999999999995e-01 5.0430546735289576e+00 8.7166799456035804e+00 7.5845558467360616e+00 -1 -2 1
1238 413 4 -8.1999999999999995e-01 1.0396625300995101e+01 6.3216185444231048e+00 3.5105065706681118e+00 -2 -2 0
4221 1407 3 4.0999999999999998e-01 7.5036167170135473e+00 4.1864860352717290e+00 9.7222783889710378e+00 -2 -2 -3
1160 387 4 -8.1999999999999995e-01 8.7149307046221995e+00 6.4679995373534025e+00 7.7778911994876454e+00 -6 3 -2
6344 2115 4 -8.1999999999999995e-01 1.4535946345598820e+00 9.2443532493414615e+00 3.6740144876820242e+00 1 3 1
953 318 4 -8.1999999999999995e-01 2.2686294051382534e+00 1.9574341285750774e-01 2.6362227444157638e-01 3 -1 6
6038 2013 4 -8.1999999999999995e-01 1.1200211543190732e+00 6.7938895892682556e+00 2.8808408452169605e+00 -3 4 1
1624 542 3 4.0999999999999998e-01 9.1653287764628306e+00 2.8963821756356247e+00 1.5293268879613691e+00 5 -2 -6
872 291 4 -8.1999999999999995e-01 1.7377404223011808e+00 1.2192561572501199e+00 8.4853724845608820e+00 2 2 -1
4074 1358 3 4.0999999999999998e-01 3.8998234832965673e+00 5.8646839496011864e+00 8.2750214828496702e+00 1 1 3
2583 861 3 4.0999999999999998e-01 8.0934705834394749e-01 3.0813850970136021e+00 5.7997172783368267e+00 5 5 2
5467 1823 3 4.0999999999999998e-01 4.7495767662616890e+00 7.4041438031340050e+00 4.7930977725992205e+00 1 0 1
1107 369 3 4.0999999999999998e-01 1.1948524671423599e+00 3.6540562205464377e+00 2.4816416509015014e+00 -2 3 4
2932 978 3 4.0999999999999998e-01 9.7017691288440844e-01 7.5074096780345538e+00 9.7574550351072116e+00 6 -1 -1
5737 1913 3 4.0999999999999998e-01 3.7088161794606911e-01 1.7639495813364101e+00 9.5632288873875542e+00 1 4 0
356 119 4 -8.1999999999999995e-01 8.5307748395676182e+00 8.4641602046617219e+00 5.7158877133255199e+00 0 2 -2
198 66 3 4.0999999999999998e-01 9.6472571279653092e+00 3.6787412771854231e+00 9.4163710602505724e+00 0 -2 5
6726 2242 3 4.0999999999999998e-01 5.5668241846144682e+00 9.5752648062269916e+00 7.3768696751481091e+00 -1 -2 1
1602 534 3 4.0999999999999998e-01 7.2131470161771212e+00 6.2418382829033954e+00 3.9608246408192036e+00 7 -6 2
1625 542 4 -8.1999999999999995e-01 8.8624480174208706e+00 1.9338477316964771e+00 1.3206957922683180e+00 5 -2 -6
2812 938 3 4.0999999999999998e-01 4.7307082668977145e+00 4.9824164556948025e+00 4.6536709420406801e+00 -3 1 -1
7228 2410 3 4.0999999999999998e-01 2.7277659311417617e+00 4.7530311770381992e+00 7.6324047501684933e-01 0 5 0
357 119 3 4.0999999999999998e-01 8.4917836439303063e+00 9.4582897949906997e+00 5.7887954821175702e+00 0 2 -2
5176 1726 3 4.0999999999999998e-01 7.1536358600814305e+00 6.9662993982491772e-01 1.7723869839091544e+00 -1 -3 -2
3394 1132 3 4.0999999999999998e-01 9.8750270511856399e+00 5.6953214723369081e+00 1.8628137534234579e+00 0 1 1
6345 2115 3 4.0999999999999998e-01 1.3688154783631661e+00 8.2384960835647316e+00 3.4807492247797573e+00 1 3 1
6724 2242 3 4.0999999999999998e-01 4.6090790371733812e+00 8.7532218688838466e+00 8.4988856919303011e+00 -1 -2 1
6401 2134 4 -8.1999999999999995e-01 5.8059477466874583e+00 5.8312389361488881e+00 7.8644627417242408e+00 -3 4 -3
4692 1564 3 4.0999999999999998e-01 1.6727383681975803e+00 7.9803148477347881e+00 6.4338465207707678e+00 1 -2 -1
197 66 4 -8.1999999999999995e-01 8.9961842095712861e+00 4.4328552412303148e+00 9.7026997058119555e+00 0 -2 5
1601 534 4 -8.1999999999999995e-01 7.2141177279857036e+00 7.1029015162806397e+00 3.4840805772833199e+00 7 -6 2
873 291 3 4.0999999999999998e-01 2.5026137239017987e+00 1.8523542627723837e+00 8.7596019805438221e+00 2 2 -1
3395 1132 4 -8.1999999999999995e-01 9.9292962758794889e+00 5.8340593112575352e+00 8.2465711943684494e-01 0 1 1
2581 861 3 4.0999999999999998e-01 1.4515521634580704e+00 2.3733059381158310e+00 4.5065737581951639e+00 5 5 2
1105 369 3 4.0999999999999998e-01 1.4930036021202675e+00 1.9076825246087123e+00 2.3159477514639764e+00 -2 3 4
1228 410 3 4.0999999999999998e-01 8.6460956411870651e+00 3.8743643352774275e+00 4.0768124302222075e+00 0 0 2
5784 1928 3 4.0999999999999998e-01 1.6184783937559504e+00 6.6299722585341021e+00 4.3539958860116261e+00 -3 -1 -1
355 119 3 4.0999999999999998e-01 8.2086448894085891e+00 8.2295524246115956e+00 4.7508524756000821e+00 0 2 -2
3851 1284 4 -8.1999999999999995e-01 4.5956716651788039e+00 8.0855278212824970e+00 1.0207593213165703e+01 1 -4 -2
553 185 3 4.0999999999999998e-01 1.0064975757425055e+01 6.4230611549197558e+00 6.6640520213996206e+00 -1 2 -1
5405 1802 4 -8.1999999999999995e-01 5.4509155412447496e+00 5.6324114728013548e+00 1.3534487924330001e+00 -2 -1 2
6277 2093 3 4.0999999999999998e-01 5.2066642568554569e+00 9.8639197691469374e+00 4.3654592979394309e+00 5 -2 -1
196 66 3 4.0999999999999998e-01 8.9143463715923357e+00 5.0722827409734670e+00 8.9092424987727412e+00 0 -2 5
3281 1094 4 -8.1999999999999995e-01 4.5151103649367537e+00 1.3554061420032375e+00 2.9371802796240889e+00 4 4 5
2933 978 4 -8.1999999999999995e-01 1.8770775766272578e+00 7.4129692513118366e+00 1.0238526657389500e+01 6 -1 -1
5673 1891 3 4.0999999999999998e-01 6.6425040599645060e+00 3.7569744041613222e+00 4.6295351903742183e+00 2 2 -4
871 291 3 4.0999999999999998e-01 1.6365907969230420e+00 1.0734322284208626e+00 7.4604910537805464e+00 2 2 -1
5509 1837 3 4.0999999999999998e-01 9.5981709865395413e+00 9.3632916166644389e+00 9.8848400013788922e+00 3 1 2
4169 1390 4 -8.1999999999999995e-01 8.0910571181008866e+00 8.0802748244295550e+00 3.8134792892110980e-01 3 -6 0
1600 534 3 4.0999999999999998e-01 6.7004012737124627e+00 7.0273203907688080e+00 2.6261367086828562e+00 7 -6 2
4219 1407 3 4.0999999999999998e-01 5.9231304012875876e+00 4.0269438319826953e+00 8.9915349493493206e+00 -2 -2 -3
1159 387 3 4.0999999999999998e-01 9.1087763422326802e+00 7.0780286975374240e+00 8.4959556957804061e+00 -6 3 -2
2814 938 3 4.0999999999999998e-01 5.0423230178290792e+00 5.7980293428476477e+00 6.1061748413379089e+00 -3 1 -1
5671 1891 3 4.0999999999999998e-01 7.4534248550857933e+00 3.5403466125479390e+00 6.1275000676934051e+00 2 2 -4
6363 2121 3 4.0999999999999998e-01 3.4623462971788448e+00 4.2631558466399522e+00 7.7534474959582864e+00 -1 2 -3
5672 1891 4 -8.1999999999999995e-01 7.5108426850674128e+00 3.5769632549549200e+00 5.1276592191907513e+00 2 2 -4
5404 1802 3 4.0999999999999998e-01 5.4164305836742219e+00 6.5199281701531602e+00 9.4487976885429736e-01 -2 -1 2
6890 2297 4 -8.1999999999999995e-01 5.1812628815997748e+00 3.8197322266677043e+00 3.5873318987746559e+00 0 0 3
1626 542 3 4.0999999999999998e-01 9.3107356813311242e+00 1.4343679129744076e+00 2.0835884032090592e+00 5 -2 -6
5406 1802 3 4.0999999999999998e-01 6.0975735164039087e+00 5.1554402057447728e+00 6.8499374557777859e-01 -2 -1 2
6402 2134 3 4.0999999999999998e-01 5.5432463078211001e+00 6.8595915686596198e+00 7.8654166906137659e+00 -3 4 -3
6343 2115 3 4.0999999999999998e-01 1.8968485012427829e+00 9.2629069278337823e+00 4.5840162194849556e+00 1 3 1
6362 2121 4 -8.1999999999999995e-01 3.6591442852879084e+00 3.2663568861374523e+00 7.6600501819416493e+00 -1 2 -3
1230 410 3 4.0999999999999998e-01 9.6379345286541902e+00 4.9535461579622826e+00 3.3304015926431139e+00 0 0 2
2813 938 4 -8.1999999999999995e-01 4.4375375627875835e+00 5.7528990708446681e+00 5.2357583856116312e+00 -3 1 -1
5833 1945 3 4.0999999999999998e-01 9.4040612809079072e+00 9.6372375032577773e-01 8.6254594260766275e+00 4 3 1
3852 1284 3 4.0999999999999998e-01 3.5396193151748916e+00 7.8989999735153944e+00 1.0202034172124602e+01 1 -4 -2
1229 410 4 -8.1999999999999995e-01 9.3018955762436839e+00 3.9656457492280941e+00 3.2678281782292249e+00 0 0 2
4691 1564 4 -8.1999999999999995e-01 1.0876390840635108e+00 8.7712127767934192e+00 6.7015553511986408e+00 1 -2 -1
6891 2297 3 4.0999999999999998e-01 5.2039360227745997e+00 4.4569903232656092e+00 2.6934112857321288e+00 0 0 3
3282 1094 3 4.0999999999999998e-01 5.2916248623880762e+00 6.9538214581532232e-01 2.6903192021228857e+00 4 4 5
1825 609 3 4.0999999999999998e-01 6.0749904933503309e+00 2.4475528106050302e+00 1.0382246103608120e+01 -4 4 -1
5469 1823 3 4.0999999999999998e-01 4.6754535222520941e+00 8.5223692220402700e+00 6.0651055051911733e+00 1 0 1
5783 1928 4 -8.1999999999999995e-01 2.0020861822317437e+00 6.6080860153211063e+00 5.3143498609408990e+00 -3 -1 -1
1161 387 3 4.0999999999999998e-01 8.6004192217609106e+00 7.0283897455495250e+00 6.9060987974721071e+00 -6 3 -2
4007 1336 4 -8.1999999999999995e-01 4.6308282294942034e+00 2.7037538873995879e+00 4.4431821249564624e-01 0 2 0
4006 1336 3 4.0999999999999998e-01 4.4755253433677709e+00 2.3835477495150412e+00 1.3803627589812300e+00 0 2 0
7229 2410 4 -8.1999999999999995e-01 2.8095634326712116e+00 5.4069175389104993e+00 1.4939461986936529e+00 0 5 0
6831 2277 3 4.0999999999999998e-01 1.3285440152954548e+00 8.0676547837441124e+00 1.2746987961143599e+00 4 4 -2
6039 2013 3 4.0999999999999998e-01 1.6643110688512717e+00 6.1574934092773237e+00 2.2590457708029730e+00 -3 4 1
6830 2277 4 -8.1999999999999995e-01 8.5095319377102019e-01 8.2372231718982452e+00 3.6693688413428205e-01 4 4 -2
496 166 3 4.0999999999999998e-01 8.4649705713583945e+00 9.5520956540300013e+00 1.0820831110062754e+00 -4 5 -7
6361 2121 3 4.0999999999999998e-01 3.3698557369120072e+00 2.9974850141049978e+00 6.6918236988132760e+00 -1 2 -3
6037 2013 3 4.0999999999999998e-01 2.1764666469260380e-01 6.3838349545319106e+00 2.5326923513799469e+00 -3 4 1
4170 1390 3 4.0999999999999998e-01 8.4700171933232937e+00 7.1750379858574371e+00 6.0344000529792019e-01 3 -6 0
5511 1837 3 4.0999999999999998e-01 1.0526449734466443e+01 7.8936072650476143e+00 1.0140269858091965e+01 3 1 2
4168 1390 3 4.0999999999999998e-01 7.0772930178165474e+00 8.0871455311129274e+00 2.0604474500007797e-01 3 -6 0
3518 1173 4 -8.1999999999999995e-01 2.0580588652946266e+00 2.9197548238473225e+00 1.8193042193182894e+01 2 6 1
2934 978 3 4.0999999999999998e-01 1.6236963331915670e+00 6.9313398766816698e+00 1.1078407751980228e+01 6 -1 -1
4122 1374 3 4.0999999999999998e-01 5.2460464074325541e+00 3.6313589926155281e+00 1.3440295209443384e+01 -3 -1 -5
5757 1919 3 4.0999999999999998e-01 9.0588963717409996e+00 6.2628448199989375e+00 1.8785752137091730e+01 0 -1 0
5288 1763 4 -8.1999999999999995e-01 7.7277720032708013e+00 3.0835855440115094e+00 1.8757696158544334e+01 5 4 0
6006 2002 3 4.0999999999999998e-01 1.3641649402801701e+00 9.0066851322750274e-01 1.4999286682974187e+01 2 6 5
1680 560 3 4.0999999999999998e-01 8.9636201727471523e+00 9.5099323230395143e+00 1.3047350620195196e+01 -2 -1 1
3333 1111 3 4.0999999999999998e-01 1.6060686501788082e+00 4.6571182224187835e+00 1.1042478207745924e+01 5 4 -2
5539 1847 3 4.0999999999999998e-01 1.1649967051571761e+00 9.3016979550226964e+00 1.5427859670988159e+01 0 1 -3
4580 1527 4 -8.1999999999999995e-01 3.1717770731335855e+00 6.0952096010837016e+00 1.4323774297247057e+01 6 0 3
4695 1565 3 4.0999999999999998e-01 2.7317320513728358e+00 4.1369073566261774e+00 1.9474131575840950e+01 0 5 -4
5540 1847 4 -8.1999999999999995e-01 7.3224297506168623e-01 9.1537624137070086e+00 1.6292660735435330e+01 0 1 -3
5151 1717 3 4.0999999999999998e-01 2.5596353740375264e+00 2.8812721890901121e+00 1.5238404429589009e+01 5 4 4
6146 2049 4 -8.1999999999999995e-01 9.7871256102906603e+00 9.2164852078624140e+00 1.7713867554074405e+01 -3 -4 4
4850 1617 4 -8.1999999999999995e-01 4.1797732256699494e+00 9.7204085135270404e+00 1.6058457550526793e+01 3 4 0
5756 1919 4 -8.1999999999999995e-01 9.2475614830444179e+00 7.0164234090329405e+00 1.9485398684718739e+01 0 -1 0
720 240 3 4.0999999999999998e-01 5.5265432601959397e+00 7.1197418650491811e+00 1.2986655529327619e+01 2 -3 -1
3772 1258 3 4.0999999999999998e-01 6.3587080746145759e+00 8.0890630570986790e+00 1.4953296800012103e+01 1 0 -2
3061 1021 3 4.0999999999999998e-01 4.9721245731775472e+00 3.0785518995198875e+00 1.9955127729172951e+01 1 0 -2
3640 1214 3 4.0999999999999998e-01 7.9241559952376903e+00 6.1795897641218769e+00 1.3631324968830793e+01 1 -5 1
163 55 3 4.0999999999999998e-01 1.0468197053128221e+00 5.0529625347244229e+00 1.5969701178273640e+01 4 3 0
6204 2068 3 4.0999999999999998e-01 4.5291327456499628e+00 2.5899762704178513e+00 1.1109068111797201e+01 5 -4 4
4975 1659 3 4.0999999999999998e-01 8.0349242393305946e+00 1.0118562829292895e+01 2.0077071451613069e+01 0 5 -5
3519 1173 3 4.0999999999999998e-01 1.9695473248051050e+00 3.4367023167299799e+00 1.7314561313942313e+01 2 6 1
2090 697 4 -8.1999999999999995e-01 9.3361544922529305e+00 4.8165598454612315e+00 1.7790001635981607e+01 1 4 2
715 239 3 4.0999999999999998e-01 1.2299187686314879e+00 7.6739861837888323e+00 1.9663302774088308e+01 -1 -2 0
1208 403 4 -8.1999999999999995e-01 2.5676901592225501e+00 9.7302727566882155e+00 1.3824762180662248e+01 -1 1 2
789 263 3 4.0999999999999998e-01 5.7878569248091312e+00 4.9909009964930666e+00 1.1136684867256763e+01 0 -3 -3
3517 1173 3 4.0999999999999998e-01 1.0965254382786227e+00 2.4840010791313443e+00 1.8387756388680650e+01 2 6 1
1679 560 4 -8.1999999999999995e-01 8.2033594702604553e+00 1.0156260900514450e+01 1.2775247607772183e+01 -2 -1 1
4579 1527 3 4.0999999999999998e-01 3.7714470782872467e+00 6.9087348023043607e+00 1.4585719161988678e+01 6 0 3
4526 1509 4 -8.1999999999999995e-01 5.4580084231659534e+00 5.4996916200173884e-01 1.5706720489690948e+01 -1 1 -1
3773 1258 4 -8.1999999999999995e-01 7.2471137239254819e+00 8.1175112840960875e+00 1.5558001577622587e+01 1 0 -2
4723 1575 3 4.0999999999999998e-01 5.0227144853300256e+00 8.5473510415626652e+00 1.8345610810203578e+01 5 -8 5
718 240 3 4.0999999999999998e-01 5.1756862012141713e+00 8.6887532950913062e+00 1.3139049947820146e+01 2 -3 -1
4725 1575 3 4.0999999999999998e-01 4.4480566580911818e+00 9.5436932686513618e+00 1.9636701208356790e+01 5 -8 5
5932 1978 3 4.0999999999999998e-01 3.2271719963425398e+00 1.5604189252731777e+00 1.7915260684237392e+01 2 -2 0
5492 1831 4 -8.1999999999999995e-01 6.3257159703821229e+00 7.5435848245560324e+00 1.8218634926687315e+01 6 -2 0
5934 1978 3 4.0999999999999998e-01 4.4843336772096736e+00 1.3248616826561317e+00 1.8781887704903088e+01 2 -2 0
6309 2103 3 4.0999999999999998e-01 7.4558069290401070e+00 9.9705016483017062e+00 1.5855640509580695e+01 -3 2 2
4527 1509 3 4.0999999999999998e-01 4.9926544109064084e+00 4.9230554317463754e-01 1.6607562071100801e+01 -1 1 -1
4985 1662 4 -8.1999999999999995e-01 5.5639448997451408e+00 9.9489076280697955e+00 1.2130633124252871e+01 -1 0 1
6492 2164 3 4.0999999999999998e-01 3.7349082698659388e+00 1.3027110208539210e+00 1.5024131901957507e+01 2 -4 -4
6490 2164 3 4.0999999999999998e-01 3.2839573837259723e+00 1.6210402136301667e+00 1.3511267362284862e+01 2 -4 -4
388 130 3 4.0999999999999998e-01 4.9390815189667441e+00 5.3174861347606903e+00 1.9612740523863668e+01 -3 2 1
4977 1659 3 4.0999999999999998e-01 8.5417390418507395e+00 9.7008964594027383e+00 1.8449953242345529e+01 0 5 -5
4535 1512 4 -8.1999999999999995e-01 1.4146866208515401e+00 3.0473223652582038e-01 1.1996540566242684e+01 -1 3 -2
3315 1105 3 4.0999999999999998e-01 8.9528384784182791e+00 4.6992691621971021e+00 1.4467107539731579e+01 -1 2 -2
6491 2164 4 -8.1999999999999995e-01 2.9925355383549492e+00 1.6848412445666767e+00 1.4501534055054403e+01 2 -4 -4
4217 1406 4 -8.1999999999999995e-01 7.5831604495762024e+00 1.8017775446707487e+00 1.4714508684058718e+01 0 0 -2
5191 1731 3 4.0999999999999998e-01 8.6883469559748150e+00 4.3811714934652868e-01 1.9377840649091837e+01 5 0 -2
717 239 3 4.0999999999999998e-01 7.9871832158781075e-01 6.9754228071438913e+00 1.8146602230367233e+01 -1 -2 0
5289 1763 3 4.0999999999999998e-01 7.6605047760292964e+00 2.1832559461529519e+00 1.8320558680585485e+01 5 4 0
4114 1372 3 4.0999999999999998e-01 5.7229054075940748e+00 4.0420806077397451e+00 1.5374978972878187e+01 2 -4 4
5739 1913 3 4.0999999999999998e-01 5.0026029162365127e-01 1.2723353678843399e+00 1.1040286691401635e+01 1 4 0
390 130 3 4.0999999999999998e-01 6.3840142837119211e+00 5.8774203057945069e+00 1.9119711205047253e+01 -3 2 1
1207 403 3 4.0999999999999998e-01 2.2940249279911096e+00 8.8118021753066991e+00 1.3535367242741852e+01 -1 1 2
4525 1509 3 4.0999999999999998e-01 6.1923598583722219e+00 1.2796122821802003e+00 1.5655618649820624e+01 -1 1 -1
4851 1617 3 4.0999999999999998e-01 4.1798647878510327e+00 9.6444450321917063e+00 1.7093315474395592e+01 3 4 0
3062 1021 4 -8.1999999999999995e-01 5.1591841236010794e+00 2.1117072316033636e+00 2.0085103929419951e+01 1 0 -2
5572 1858 3 4.0999999999999998e-01 6.7042870139727473e+00 5.6299869771551814e-01 1.3451048776826498e+01 1 0 -2
3642 1214 3 4.0999999999999998e-01 7.1067711560250864e+00 6.2823665142117342e+00 1.2131403458379621e+01 1 -5 1
5491 1831 3 4.0999999999999998e-01 6.9125403146795374e+00 8.1047293870312007e+00 1.8916342590984481e+01 6 -2 0
4984 1662 3 4.0999999999999998e-01 6.5641486059940979e+00 9.8096919764271675e+00 1.2261799718606509e+01 -1 0 1
3314 1105 4 -8.1999999999999995e-01 8.5638915721197399e+00 5.3954509522556160e+00 1.5077440886383345e+01 -1 2 -2
6202 2068 3 4.0999999999999998e-01 3.0549144448634378e+00 3.0092271035626168e+00 1.1452656468853242e+01 5 -4 4
4216 1406 3 4.0999999999999998e-01 7.0368778416960742e+00 2.5527362718945126e+00 1.5219397775533391e+01 0 0 -2
3774 1258 3 4.0999999999999998e-01 7.8246926193091824e+00 7.2515043039749605e+00 1.5369779226609133e+01 1 0 -2
3313 1105 3 4.0999999999999998e-01 8.9834642260542861e+00 5.4590241031557705e+00 1.5992183512100626e+01 -1 2 -2
5933 1978 4 -8.1999999999999995e-01 3.9912312527015770e+00 9.0327659791215453e-01 1.7970552955008614e+01 2 -2 0
788 263 4 -8.1999999999999995e-01 5.4046110210393570e+00 5.8751091889915577e+00 1.1543384455663071e+01 0 -3 -3
3240 1080 3 4.0999999999999998e-01 1.0443810832766106e+01 3.5698440272947849e+00 1.3495861611598283e+01 0 -1 -1
5149 1717 3 4.0999999999999998e-01 2.5984034239955256e+00 4.5616052695350868e+00 1.5167607358224547e+01 5 4 4
4581 1527 3 4.0999999999999998e-01 3.9401480614368891e+00 5.5060418706452454e+00 1.3925810762164019e+01 6 0 3
3964 1322 3 4.0999999999999998e-01 1.8101477355198203e+00 5.8106463965891439e+00 1.3300216831292202e+01 0 -4 -1
2408 803 4 -8.1999999999999995e-01 3.0073632670620132e+00 4.3919627122352134e-01 2.0982100251250653e+01 1 -1 2
4121 1374 4 -8.1999999999999995e-01 5.5335702540230267e+00 4.5726717291777295e+00 1.3771439154726815e+01 -3 -1 -5
3850 1284 3 4.0999999999999998e-01 4.8532686716516658e+00 8.9463065883093602e+00 1.0749580103899889e+01 1 -4 -2
6203 2068 4 -8.1999999999999995e-01 3.9084356380001695e+00 2.5356783597454471e+00 1.1917547922645825e+01 5 -4 4
5755 1919 3 4.0999999999999998e-01 9.5829912784650535e+00 7.8657869224550305e+00 1.9018652868896069e+01 0 -1 0
4120 1374 3 4.0999999999999998e-01 5.4740849005274717e+00 5.1838232439414185e+00 1.2916181549903408e+01 -3 -1 -5
5150 1717 4 -8.1999999999999995e-01 2.2398977743164141e+00 3.7871846246788810e+00 1.5674323981339771e+01 5 4 4
2089 697 3 4.0999999999999998e-01 8.5726279653790609e+00 4.1728271978272176e+00 1.8105062913282076e+01 1 4 2
5287 1763 3 4.0999999999999998e-01 7.0874910753078497e+00 3.1332749078974476e+00 1.9525286950811044e+01 5 4 0
3965 1322 4 -8.1999999999999995e-01 1.2452823179204706e+00 5.9150321798299927e+00 1.2419235580751790e+01 0 -4 -1
4116 1372 3 4.0999999999999998e-01 6.4195684361965508e+00 4.0184322430300430e+00 1.6893515775808687e+01 2 -4 4
4218 1406 3 4.0999999999999998e-01 8.5951296866141149e+00 2.0512763757429595e+00 1.4729038789895879e+01 0 0 -2
459 153 3 4.0999999999999998e-01 2.7542080242078444e+00 1.0426834075738251e+01 1.8423879959066568e+01 3 -6 -2
4976 1659 4 -8.1999999999999995e-01 7.7834632294330675e+00 1.0173210901245715e+01 1.9076446975897877e+01 0 5 -5
4724 1575 4 -8.1999999999999995e-01 4.3683680138890653e+00 9.2603057461184335e+00 1.8655488496599801e+01 5 -8 5
3641 1214 4 -8.1999999999999995e-01 7.9417671352354366e+00 6.4756477725450141e+00 1.2658092792147826e+01 1 -5 1
5515 1839 3 4.0999999999999998e-01 9.2398450126902407e+00 7.5991565342622778e+00 1.3656550900370618e+01 -2 4 0
5493 1831 3 4.0999999999999998e-01 6.7530029513352332e+00 7.5598386608745702e+00 1.7289075790193671e+01 6 -2 0
3966 1322 3 4.0999999999999998e-01 3.3770947037622251e-01 5.4371801176087082e+00 1.2626863342489383e+01 0 -4 -1
1827 609 3 4.0999999999999998e-01 5.6333718370968695e+00 8.7369088433725917e-01 1.0930378783702974e+01 -4 4 -1
4115 1372 4 -8.1999999999999995e-01 5.7817457446225475e+00 3.5257539273157721e+00 1.6262523180069131e+01 2 -4 4
719 240 4 -8.1999999999999995e-01 5.2323087551286154e+00 7.8159117365623105e+00 1.3705054158177715e+01 2 -3 -1
4849 1617 3 4.0999999999999998e-01 5.1443971040407837e+00 9.8259479581160036e+00 1.5669020092204590e+01 3 4 0
389 130 4 -8.1999999999999995e-01 5.9510512004179992e+00 5.3322469603783702e+00 1.9876698198156749e+01 -3 2 1
2091 697 3 4.0999999999999998e-01 1.0256535302074047e+01 4.3102256110181312e+00 1.7852904433561839e+01 1 4 2
6147 2049 3 4.0999999999999998e-01 1.0461188895728624e+01 8.8554707370914478e+00 1.7003547640251032e+01 -3 -4 4
1209 403 3 4.0999999999999998e-01 3.0055903306964082e+00 9.7386095014919167e+00 1.4748676466046312e+01 -1 1 2
716 239 4 -8.1999999999999995e-01 5.0418614461596278e-01 7.2589734203066367e+00 1.9050842114818668e+01 -1 -2 0
787 263 3 4.0999999999999998e-01 5.1258519906662166e+00 6.6556626686696756e+00 1.0856940058447469e+01 0 -3 -3
4694 1565 4 -8.1999999999999995e-01 3.3511355435949772e+00 4.2869258112419280e+00 2.0237085617510438e+01 0 5 -4
3239 1080 4 -8.1999999999999995e-01 1.0067403290583982e+01 2.8501345722108979e+00 1.4151386572160263e+01 0 -1 -1
3063 1021 3 4.0999999999999998e-01 5.7132107131639698e+00 1.8451685438373748e+00 2.0872001049274100e+01 1 0 -2
164 55 4 -8.1999999999999995e-01 4.2764341647429355e-01 5.8117696869287157e+00 1.6119542154198097e+01 4 3 0
2504 835 4 -8.1999999999999995e-01 1.0426317623244547e+01 4.0602783831909628e-01 1.7459243743167828e+01 -4 3 -4
5193 1731 3 4.0999999999999998e-01 9.7302551094679597e+00 4.0598784929447029e-01 2.0825548058641917e+01 5 0 -2
2838 946 3 4.0999999999999998e-01 8.7635012532576191e+00 4.8043700692153113e-01 1.7318961517421087e+01 -5 4 -1
2407 803 3 4.0999999999999998e-01 3.8122168355955761e+00 1.0013821514036068e+00 2.0770016681170759e+01 1 -1 2
5516 1839 4 -8.1999999999999995e-01 1.0094446131203419e+01 8.2110653591840990e+00 1.3655138426510568e+01 -2 4 0
6145 2049 3 4.0999999999999998e-01 9.8210501794210625e+00 1.0238289044244036e+01 1.7610618007100346e+01 -3 -4 4
2837 946 4 -8.1999999999999995e-01 7.7917888763686181e+00 6.6291877090412410e-01 1.7662313017050760e+01 -5 4 -1
5100 1700 3 4.0999999999999998e-01 9.9292276549444178e+00 4.8063812840423985e+00 1.1394416733070171e+01 -1 -7 0
4534 1512 3 4.0999999999999998e-01 9.6513979496400182e-01 3.8214189547124722e-01 1.2919879719971608e+01 -1 3 -2
7122 2374 3 4.0999999999999998e-01 1.0426331449504502e+01 5.9449557300393669e+00 2.0231583789891179e+01 -2 4 -6
5541 1847 3 4.0999999999999998e-01 1.3155414058584289e+00 9.8145050549311286e+00 1.6945347050662928e+01 0 1 -3
3954 1318 3 4.0999999999999998e-01 9.1294765185468947e+00 8.0945898931638709e+00 2.0906321585875052e+01 6 -5 0
3332 1111 4 -8.1999999999999995e-01 2.0290692136991253e+00 3.8520740416034238e+00 1.0605900696097606e+01 5 4 -2
5910 1970 3 4.0999999999999998e-01 9.3604334261695388e-01 1.0502938471698410e+01 1.3937676800025930e+01 5 0 -6
895 299 3 4.0999999999999998e-01 6.3873406734164178e+00 8.9569816042110162e-01 2.2998503786156508e+01 4 6 -1
5478 1826 3 4.0999999999999998e-01 1.0900154086612766e+00 5.5985072932672542e-01 2.6928500926659929e+01 -4 -1 0
5799 1933 3 4.0999999999999998e-01 3.8254835615504410e+00 6.2745039025283775e+00 2.7229472522376170e+01 -1 3 -2
5789 1930 4 -8.1999999999999995e-01 3.8147707687639292e+00 3.0595354509610999e+00 3.1239527688831970e+01 3 -3 4
5798 1933 4 -8.1999999999999995e-01 3.4449151458013709e+00 5.8006011948469380e+00 2.6391101838322573e+01 -1 3 -2
7320 2440 3 4.0999999999999998e-01 2.3165082098957107e-01 2.4271891310890106e+00 2.6607375953145869e+01 -6 0 3
5240 1747 4 -8.1999999999999995e-01 6.8653018082166317e-01 8.9686499287796178e+00 2.3212274846748194e+01 -3 1 0
5194 1732 3 4.0999999999999998e-01 3.6156960591176879e+00 2.7074932382727357e+00 2.6058525781718231e+01 1 1 -2
2384 795 4 -8.1999999999999995e-01 7.0655428182473590e-01 4.9642837528257227e+00 2.8839155147129741e+01 0 0 -2
4566 1522 3 4.0999999999999998e-01 4.2945902204125114e-01 8.3077772670762489e+00 2.7515856762473891e+01 -2 2 -3
3367 1123 3 4.0999999999999998e-01 8.1010750972711083e+00 6.2584850122570916e+00 2.5283612930653366e+01 -3 -6 -3
5241 1747 3 4.0999999999999998e-01 1.1018609359277844e+00 9.7913633825655779e+00 2.3576357047453268e+01 -3 1 0
519 173 3 4.0999999999999998e-01 1.0484227699309475e+01 8.5476420356197842e+00 2.4502765924150527e+01 3 2 -4
513 171 3 4.0999999999999998e-01 9.9168685603152831e+00 8.4744981169829714e+00 2.7307017268452199e+01 3 5 -4
3953 1318 4 -8.1999999999999995e-01 9.1699830822633306e+00 8.9771386030377780e+00 2.1376051559213852e+01 6 -5 0
5748 1916 3 4.0999999999999998e-01 4.9457310765349938e+00 2.2969859416275646e+00 3.0396510826914870e+01 3 3 -3
437 146 4 -8.1999999999999995e-01 8.6181045968705980e+00 2.5037103013484758e+00 2.7934415575557459e+01 -1 1 -1
5023 1675 3 4.0999999999999998e-01 9.6805699723146841e+00 4.1364693122548086e+00 2.3004004694735414e+01 0 0 -1
1053 351 3 4.0999999999999998e-01 4.0144733404702846e+00 5.3116127431190749e+00 2.2907940753986693e+01 0 2 -4
4176 1392 3 4.0999999999999998e-01 8.4556608617696796e+00 7.7822685605726794e-01 2.7573422175290155e+01 -2 2 -1
6850 2284 3 4.0999999999999998e-01 3.2854375513024965e+00 2.7295428506393828e+00 2.3582733771465776e+01 3 -1 -2
3585 1195 3 4.0999999999999998e-01 6.4020466987865445e+00 5.0818742654785947e+00 2.2177794609891016e+01 0 -5 4
5788 1930 3 4.0999999999999998e-01 3.4192984293152442e+00 3.9483127572220718e+00 3.0950161119332638e+01 3 -3 4
3952 1318 3 4.0999999999999998e-01 9.8077436321162654e+00 8.9454353288952504e+00 2.2220560868207158e+01 6 -5 0
2053 685 3 4.0999999999999998e-01 1.0180267829541682e+01 4.9836350675227710e+00 2.6221875343838544e+01 2 -2 0
230 77 4 -8.1999999999999995e-01 1.1526592490528125e+00 7.1940550938518522e+00 2.6770806743451374e+01 0 2 -2
92 31 4 -8.1999999999999995e-01 2.2253340491870102e+00 8.6230165134549406e+00 2.9444625292944000e+01 4 2 -2
3573 1191 3 4.0999999999999998e-01 9.8496301775279100e+00 2.3611504877893763e+00 2.2076130717891669e+01 -1 0 0
942 314 3 4.0999999999999998e-01 2.1945346227006572e+00 5.3602060242880265e+00 2.9675406843584160e+01 0 1 1
2004 668 3 4.0999999999999998e-01 2.3864485618816862e+00 9.5289767713575753e+00 3.0886793654413342e+01 5 4 -2
3875 1292 4 -8.1999999999999995e-01 6.1935651249662058e+00 6.4749423152396561e+00 2.4810477854881952e+01 1 -1 0
75 25 3 4.0999999999999998e-01 7.0467531558783536e+00 1.4198541486919904e+00 3.0638858244705077e+01 0 0 -4
438 146 3 4.0999999999999998e-01 9.3426245291245777e+00 3.1911830279607289e+00 2.8350120892733582e+01 -1 1 -1
1034 345 4 -8.1999999999999995e-01 6.2591207006194640e+00 4.1470134454658298e+00 2.7960212858396250e+01 2 1 -4
1390 464 3 4.0999999999999998e-01 4.9749970812623703e+00 9.3835958907403878e+00 2.2448931456688829e+01 1 0 4
4014 1338 3 4.0999999999999998e-01 5.1137078791241555e+00 3.8901960318678008e-01 2.8533081297816608e+01 4 -4 5
6851 2284 4 -8.1999999999999995e-01 3.1346323562454712e+00 2.3132923549069693e+00 2.4518602011622722e+01 3 -1 -2
5196 1732 3 4.0999999999999998e-01 3.1416656357385118e+00 2.7010166836739549e+00 2.7557582344460748e+01 1 1 -2