LAMMPS data file via write_data, version 5 Jun 2019, timestep = 19000000

7349 atoms
5 atom types
4899 bonds
2 bond types
2451 angles
2 angle types
1 impropers
1 improper types

1.5519297081455363e-01 4.1845807029189409e+01 xlo xhi
1.5469297081455124e-01 4.1845307029189406e+01 ylo yhi
1.5469297081455124e-01 4.1845307029189406e+01 zlo zhi

#Masses
#
#1 12.01
#2 40.08
#3 1.01
#4 16
#5 16
#
#Bond Coeffs # harmonic
#
#1 20.4246 1.3042
#2 22.965 1.012

Atoms # full

6174 2058 3 4.0999999999999998e-01 6.2468338792381726e+00 9.7746648392998949e+00 8.7402810891806197e+00 -5 -3 -2
7150 2384 3 4.0999999999999998e-01 6.0460485979155409e+00 2.9864158207679052e+00 8.9707592252470079e+00 1 0 -1
4421 1474 4 -8.1999999999999995e-01 3.3073492536716373e+00 1.3492158977107083e+00 3.9131169571142461e+00 0 -4 4
4887 1629 3 4.0999999999999998e-01 4.0969799525061867e-01 3.3829530446054843e+00 8.7173701701872375e+00 5 0 -3
3896 1299 4 -8.1999999999999995e-01 6.9921405786496604e-01 4.7702855883145245e+00 1.0134067609237080e+01 0 0 2
1704 568 3 4.0999999999999998e-01 3.0491269550017566e+00 8.6147857365572946e+00 4.6954647210125744e+00 -3 -2 -1
6501 2167 3 4.0999999999999998e-01 8.9927355015148471e+00 8.8499275107328153e+00 3.0265301153441735e+00 -8 3 -3
6453 2151 3 4.0999999999999998e-01 3.8622495896132052e+00 1.7952234511577543e+00 8.4391043354091373e+00 3 3 0
5598 1866 3 4.0999999999999998e-01 8.0442065529332947e+00 6.7912586755494901e+00 7.5473267999269140e+00 -1 1 -6
5617 1873 3 4.0999999999999998e-01 1.0122973575845919e+01 8.4214197483045650e-01 6.8915619016050664e+00 -1 -2 -2
4383 1461 3 4.0999999999999998e-01 5.5034027135647952e+00 9.0348351424997926e+00 3.6639627521994420e+00 1 1 0
6500 2167 4 -8.1999999999999995e-01 8.4093931119728271e+00 9.7024964483280982e+00 2.9739989392502939e+00 -8 3 -3
3941 1314 4 -8.1999999999999995e-01 8.5385742015875188e+00 7.6273579249267245e+00 1.6160069441282732e-01 0 -3 -2
1847 616 4 -8.1999999999999995e-01 3.6980041445373031e+00 5.3866647966454213e+00 8.2996341147676773e+00 2 8 -3
1066 356 3 4.0999999999999998e-01 7.6576604017241152e+00 2.2138933257235563e-01 1.3177025702583234e+00 -3 3 6
4947 1649 3 4.0999999999999998e-01 7.2164709295942355e+00 8.6172175328835454e+00 2.0254602043803777e-01 -5 2 5
6451 2151 3 4.0999999999999998e-01 2.1505091501189391e+00 1.9522708738896011e+00 8.3187414342258634e+00 3 3 0
2647 883 3 4.0999999999999998e-01 6.4141492882936102e-01 6.6859589312520464e+00 7.5567401031734152e+00 0 0 2
4886 1629 4 -8.1999999999999995e-01 3.3476410568413495e-01 2.9190418740144999e+00 7.8082270844924846e+00 5 0 -3
6844 2282 3 4.0999999999999998e-01 9.3565791405488561e+00 5.1527037896321506e+00 7.5086800713017006e+00 -3 0 1
4382 1461 4 -8.1999999999999995e-01 6.3427417694544861e+00 8.5562916729206311e+00 4.0138998136258772e+00 1 1 0
4000 1334 3 4.0999999999999998e-01 7.4229495439037869e+00 4.0848507271241887e+00 7.7140413480942476e+00 3 3 4
6499 2167 3 4.0999999999999998e-01 7.4777809527536734e+00 9.3163491473791549e+00 3.2167201167625872e+00 -8 3 -3
4420 1474 3 4.0999999999999998e-01 3.2397112653410156e+00 7.8390370568741263e-01 4.7955826551556600e+00 0 -4 4
1455 485 3 4.0999999999999998e-01 2.7172211343340775e+00 2.5513966081701084e-01 6.9360553387838797e+00 1 -3 2
7025 2342 4 -8.1999999999999995e-01 1.0029107764854497e+00 8.1026832203903911e+00 3.6682391928757210e+00 2 -2 5
7024 2342 3 4.0999999999999998e-01 1.7632011577206754e+00 7.6058290474851891e+00 4.1126215636927324e+00 2 -2 5
5361 1787 3 4.0999999999999998e-01 1.8720547198228710e+00 5.1457283603527628e+00 5.8386947619771803e+00 -2 3 1
5359 1787 3 4.0999999999999998e-01 3.1341745675365242e+00 4.0987811739595772e+00 5.4621969774971912e+00 -2 3 1
5596 1866 3 4.0999999999999998e-01 6.9294393702862225e+00 6.0248441866828353e+00 8.3191925906657289e+00 -1 1 -6
3744 1248 3 4.0999999999999998e-01 8.1526822447499132e+00 1.5951767697013477e+00 5.9105963745095078e+00 2 -1 3
4258 1420 3 4.0999999999999998e-01 2.4527279009846779e+00 8.7727071280022741e+00 7.6096108220237735e+00 2 1 0
3743 1248 4 -8.1999999999999995e-01 7.1446958000780132e+00 1.8279347701785629e+00 5.8922870012165474e+00 2 -1 3
264 88 3 4.0999999999999998e-01 1.0150509388542990e+00 1.2947144872477281e+00 2.4570718757986900e+00 3 5 3
1394 465 4 -8.1999999999999995e-01 4.5806677729797682e+00 4.5917293967813579e+00 4.4272220446856307e+00 4 -1 0
262 88 3 4.0999999999999998e-01 1.0318904966757663e+00 1.2162745766919445e+00 8.4469526968645459e-01 3 5 3
6941 2314 4 -8.1999999999999995e-01 5.2602250247186779e+00 6.8293983039346102e+00 5.7132184991777324e+00 2 -2 0
3420 1140 3 4.0999999999999998e-01 7.6707354704681361e+00 4.1610688059031533e+00 3.3709993736849859e+00 1 -2 6
234 78 3 4.0999999999999998e-01 5.7038223393264698e+00 9.2785762922508319e-01 8.5287284977762692e+00 1 2 -2
1846 616 3 4.0999999999999998e-01 3.1376327500083958e+00 5.9275917014247055e+00 7.7279555568356706e+00 2 8 -3
7152 2384 3 4.0999999999999998e-01 4.6456930260561498e+00 3.7638997932526941e+00 8.4409697573359406e+00 1 0 -1
5619 1873 3 4.0999999999999998e-01 1.0111445466678695e+01 2.5171646526973201e-01 5.3562069390231404e+00 -1 -2 -2
1719 573 3 4.0999999999999998e-01 2.9500829633666195e+00 4.4936901939166525e+00 1.9381269183495200e+00 2 -2 3
1703 568 4 -8.1999999999999995e-01 3.0394586717965151e+00 8.3622169580633887e+00 5.7069466801824102e+00 -3 -2 -1
6940 2314 3 4.0999999999999998e-01 4.9149381184376075e+00 5.9935946325823668e+00 5.2404097650279358e+00 2 -2 0
1848 616 3 4.0999999999999998e-01 3.0312139713860118e+00 4.8925419008221143e+00 8.9081884882816986e+00 2 8 -3
7151 2384 4 -8.1999999999999995e-01 5.0212178598987212e+00 2.9138083623658804e+00 8.7994551525542111e+00 1 0 -1
263 88 4 -8.1999999999999995e-01 1.5751231201582863e+00 1.4671176987657135e+00 1.6319735603262344e+00 3 5 3
4381 1461 3 4.0999999999999998e-01 5.8802759717309874e+00 7.8860313698007669e+00 4.7013362623909991e+00 1 1 0
5982 1994 3 4.0999999999999998e-01 1.0041128079946873e+01 2.0389783604226843e+00 2.5865364087523407e-01 4 0 2
6173 2058 4 -8.1999999999999995e-01 5.5823673002069647e+00 8.9659171354543350e+00 8.4550468039091360e+00 -5 -3 -2
4885 1629 3 4.0999999999999998e-01 9.2043166687129840e-01 3.3919902782097826e+00 7.0330784786773757e+00 5 0 -3
5597 1866 4 -8.1999999999999995e-01 7.3121638717733610e+00 6.0693155573069451e+00 7.3443841455686592e+00 -1 1 -6
6171 2057 3 4.0999999999999998e-01 3.8754229372588940e+00 9.5691512892856920e+00 2.3445056249350880e+00 0 -4 -1
4470 1490 3 4.0999999999999998e-01 9.0251696704448781e-01 4.3769527202002179e+00 2.9310469370234218e+00 3 -3 0
1702 568 3 4.0999999999999998e-01 3.9772368611769848e+00 8.0553039046485484e+00 5.9428177109347899e+00 -3 -2 -1
6103 2035 3 4.0999999999999998e-01 2.5042095341700410e+00 9.0788726699934319e+00 1.0149577899156316e+01 -4 3 2
3219 1073 3 4.0999999999999998e-01 1.9701582957436710e+00 8.3451734052199100e+00 7.0758649380575478e-01 0 2 -2
1395 465 3 4.0999999999999998e-01 5.2792832236922971e+00 3.8383732792946494e+00 4.2297589082712852e+00 4 -1 0
2404 802 3 4.0999999999999998e-01 9.0402709816140288e+00 6.6036881441990332e+00 3.1480864681407166e+00 3 4 0
363 121 3 4.0999999999999998e-01 3.2302640371596532e+00 2.2528533731063156e+00 1.7372396091614948e+00 3 -6 0
4260 1420 3 4.0999999999999998e-01 3.8227241918209196e+00 9.4748127242200724e+00 8.4420125201575935e+00 2 1 0
3418 1140 3 4.0999999999999998e-01 8.8879416817538797e+00 4.7361695436133919e+00 2.4210657423491884e+00 1 -2 6
4001 1334 4 -8.1999999999999995e-01 7.5147545288664599e+00 3.2229535265552371e+00 8.2162761602992092e+00 3 3 4
6169 2057 3 4.0999999999999998e-01 3.2833570778382235e+00 1.0408375608890267e+01 3.6089298987919225e+00 0 -4 -1
5327 1776 4 -8.1999999999999995e-01 6.5375469707559102e+00 2.8874676881103531e+00 3.4395765789756014e+00 4 -3 1
6299 2100 4 -8.1999999999999995e-01 9.2287601032225908e+00 8.3832016791427026e+00 7.3947978336476412e+00 3 -3 -1
2406 802 3 4.0999999999999998e-01 9.4264027564421990e+00 7.6143032181603134e+00 1.7388203120263495e+00 3 4 0
1393 465 3 4.0999999999999998e-01 3.9233026389088863e+00 4.8218897247984671e+00 3.6417138831534799e+00 4 -1 0
361 121 3 4.0999999999999998e-01 4.7356763372796085e+00 3.0142146292270637e+00 2.0350137011215197e+00 3 -6 0
6172 2058 3 4.0999999999999998e-01 6.1626916611863631e+00 8.0775855501824143e+00 8.5063113338506202e+00 -5 -3 -2
2648 883 4 -8.1999999999999995e-01 1.5454451761920318e+00 6.5213056859990788e+00 7.0980155884300631e+00 0 0 2
362 121 4 -8.1999999999999995e-01 3.8081759204222347e+00 3.1496102348539567e+00 1.6193378214355867e+00 3 -6 0
4422 1474 3 4.0999999999999998e-01 2.3880252460871705e+00 1.5465962161675237e+00 3.4597117675084541e+00 0 -4 4
6300 2100 3 4.0999999999999998e-01 1.0214705051647964e+01 8.0873677394833230e+00 7.5524842296850521e+00 3 -3 -1
6452 2151 4 -8.1999999999999995e-01 2.9414753948470165e+00 1.2928070264528266e+00 8.4964117737619542e+00 3 3 0
1717 573 3 4.0999999999999998e-01 2.2603620663170032e+00 6.0518323595035506e+00 1.7609060484709094e+00 2 -2 3
6112 2038 3 4.0999999999999998e-01 5.0192221386542437e+00 5.9671997170309030e+00 9.1659846388262931e+00 -3 2 0
3419 1140 4 -8.1999999999999995e-01 8.2872534146070915e+00 4.9227187058021009e+00 3.2574523819619157e+00 1 -2 6
5326 1776 3 4.0999999999999998e-01 6.8460535314210844e+00 2.1340531086069330e+00 2.8044261766373793e+00 4 -3 1
6170 2057 4 -8.1999999999999995e-01 3.7777805879365918e+00 9.5301392946171628e+00 3.3349936679890484e+00 0 -4 -1
6942 2314 3 4.0999999999999998e-01 6.1479014523526780e+00 6.5268659189081815e+00 6.1969605497542615e+00 2 -2 0
2405 802 4 -8.1999999999999995e-01 9.5754625873096888e+00 7.4663199153581159e+00 2.7395283656226175e+00 3 4 0
7336 2446 3 4.0999999999999998e-01 8.2803452080555573e+00 3.4665696825398631e+00 1.0277645422092874e+01 3 -1 -3
2649 883 3 4.0999999999999998e-01 2.0367905831992172e+00 7.3162276387988721e+00 6.5540603715876768e+00 0 0 2
1067 356 4 -8.1999999999999995e-01 7.9520100838103156e+00 4.2082857881701780e-01 2.2858194080625536e+00 -3 3 6
5360 1787 4 -8.1999999999999995e-01 2.1499164064042953e+00 4.1521873144101296e+00 5.7373469997641182e+00 -2 3 1
97 33 3 4.0999999999999998e-01 4.3439112560689175e+00 9.2651524316293159e+00 4.6484895044335695e-01 2 1 1
5618 1873 4 -8.1999999999999995e-01 9.5603162884160113e+00 7.4683961318088854e-01 6.0773170985250147e+00 -1 -2 -2
5220 1740 3 4.0999999999999998e-01 6.1891992168335044e+00 1.0077226168744142e+01 5.6101766450830945e+00 -3 -1 0
98 33 4 -8.1999999999999995e-01 3.3735151646253558e+00 9.4192099296720961e+00 6.3962889753731189e-01 2 1 1
3218 1073 4 -8.1999999999999995e-01 1.2575462999045992e+00 7.5848954940558473e+00 7.3094151967030296e-01 0 2 -2
5328 1776 3 4.0999999999999998e-01 6.6889430792751643e+00 2.5207156583534944e+00 4.3417216957418878e+00 4 -3 1
4002 1334 3 4.0999999999999998e-01 7.6668548025015566e+00 2.5831412520755168e+00 7.3721846706300971e+00 3 3 4
1718 573 4 -8.1999999999999995e-01 2.3491388311069654e+00 5.2538168607207956e+00 2.4308154008392719e+00 2 -2 3
7026 2342 3 4.0999999999999998e-01 1.2605631762684382e+00 8.3530058003153425e+00 2.6952848577648520e+00 2 -2 5
4259 1420 4 -8.1999999999999995e-01 2.8355009037504284e+00 9.3018314405270726e+00 8.4030736143259492e+00 2 1 0
6298 2100 3 4.0999999999999998e-01 9.2786758380988008e+00 9.4274281001441445e+00 7.6136730079030848e+00 3 -3 -1
3742 1248 3 4.0999999999999998e-01 6.4942438399315678e+00 1.0532331681107905e+00 6.0565001305083905e+00 2 -1 3
2776 926 3 4.0999999999999998e-01 4.9681189297758515e+00 5.9859650622292415e-01 3.5335268514988640e+00 -2 1 -2
6113 2038 4 -8.1999999999999995e-01 5.9332070493616431e+00 5.7314766819053915e+00 9.5447993681322849e+00 -3 2 0
6845 2282 4 -8.1999999999999995e-01 1.0283005938434561e+01 4.7322623438105138e+00 7.7120059802423162e+00 -3 0 1
5218 1740 3 4.0999999999999998e-01 5.5724745991804170e+00 1.0156864902303782e+01 7.1754733085812141e+00 -3 -1 0
5981 1994 4 -8.1999999999999995e-01 1.0141524437808974e+01 2.9141670811191798e+00 7.5214013662548629e-01 4 0 2
3895 1299 3 4.0999999999999998e-01 3.0128299563294303e-01 5.5901092152233982e+00 9.6825291875079262e+00 0 0 2
6114 2038 3 4.0999999999999998e-01 5.8398923064575623e+00 5.3355776192813993e+00 1.0485232534331479e+01 -3 2 0
4672 1558 3 4.0999999999999998e-01 8.6015252988483439e+00 1.0375869500346601e+01 1.4878751930432204e+00 3 2 3
3940 1314 3 4.0999999999999998e-01 8.4537963990168556e+00 6.5982625935788599e+00 2.7118385050422233e-01 0 -3 -2
3991 1331 3 4.0999999999999998e-01 4.7613230369088324e+00 4.2181351981895672e+00 1.1968607908386817e+01 2 0 3
3537 1179 3 4.0999999999999998e-01 4.6844163171622686e+00 9.9667120840642767e+00 1.2048920571261931e+01 -1 2 0
1946 649 4 -8.1999999999999995e-01 3.5797318832666529e+00 7.5818541719185841e+00 1.7192141098444484e+01 -1 -1 1
1371 457 3 4.0999999999999998e-01 1.0548321142590176e+01 5.3520745198728004e-01 1.2407774805501065e+01 3 -4 2
6023 2008 4 -8.1999999999999995e-01 8.7209952313871160e+00 9.0373496869217174e-01 1.5152015203053669e+01 0 3 0
6523 2175 3 4.0999999999999998e-01 8.9666353148400297e+00 9.4357802328459273e-01 1.3076985012960829e+01 2 -1 3
3527 1176 4 -8.1999999999999995e-01 3.1952143352034663e+00 9.7360570717085277e+00 2.0180471927205577e+01 2 3 -1
6000 2000 3 4.0999999999999998e-01 5.4481905225926841e-01 9.6170633356651898e+00 1.7306973738754223e+01 -1 1 2
1052 351 4 -8.1999999999999995e-01 6.0534394989321845e+00 7.9709266138139530e+00 1.4577175325101496e+01 -1 0 -2
3919 1307 3 4.0999999999999998e-01 8.9104417728806400e+00 1.8103251289312809e+00 1.8135603124895191e+01 2 1 -6
6024 2008 3 4.0999999999999998e-01 7.8130859013876250e+00 5.7433101830962696e-01 1.5378492033338322e+01 0 3 0
3647 1216 4 -8.1999999999999995e-01 8.0931024850396476e+00 7.3418217148885319e+00 1.6976536822000007e+01 0 2 -2
3993 1331 3 4.0999999999999998e-01 5.7726979406524146e+00 4.8973304464529903e+00 1.3092506225344025e+01 2 0 3
1000 334 3 4.0999999999999998e-01 4.9128574043370072e+00 1.9859714637354404e+00 1.9861043181155125e+01 -1 -3 1
2744 915 4 -8.1999999999999995e-01 3.0019705642285781e+00 2.1581303250394641e+00 1.7163505216842250e+01 -1 -3 4
2743 915 3 4.0999999999999998e-01 3.6739801962298668e+00 2.2825063966035501e+00 1.7918115968669220e+01 -1 -3 4
395 132 4 -8.1999999999999995e-01 5.8204176329990762e+00 6.2877085511078379e+00 1.8075452800374627e+01 -4 -1 2
1053 351 3 4.0999999999999998e-01 5.3073964876942865e+00 8.2660392346200666e+00 1.3912131490516597e+01 -1 0 -2
730 244 3 4.0999999999999998e-01 1.0460058127104615e+01 9.2852508939809457e+00 1.8303880912783640e+01 3 2 -3
7338 2446 3 4.0999999999999998e-01 7.5486853557774252e+00 4.0913972586544709e+00 1.1576029058730358e+01 3 -1 -3
394 132 3 4.0999999999999998e-01 5.0322605888990894e+00 6.8541050418636926e+00 1.7684410148468071e+01 -4 -1 2
6097 2033 3 4.0999999999999998e-01 9.1996496527492013e+00 7.9535175089747288e+00 1.4403972181846040e+01 -4 3 -2
6525 2175 3 4.0999999999999998e-01 8.7612318925929102e+00 2.0559291914284881e+00 1.1741496136953712e+01 2 -1 3
994 332 3 4.0999999999999998e-01 2.3915565698088939e+00 5.1755836575355447e+00 1.6370545527403142e+01 1 1 3
913 305 3 4.0999999999999998e-01 5.0683527409775708e+00 2.1972647654230465e-01 1.5245222142500250e+01 0 2 3
5990 1997 4 -8.1999999999999995e-01 2.7626278794004828e+00 4.1704293514668578e+00 1.2132608622715745e+01 2 -1 1
425 142 4 -8.1999999999999995e-01 8.6933043497330225e+00 9.7730641137557637e+00 1.8927107100889188e+01 2 -2 1
6505 2169 3 4.0999999999999998e-01 4.2789350957072285e+00 5.4546742086951436e+00 1.4882865878602502e+01 4 0 4
3646 1216 3 4.0999999999999998e-01 7.4193341997811437e+00 6.6196706685156679e+00 1.7372167325081449e+01 0 2 -2
3921 1307 3 4.0999999999999998e-01 8.1100272955887363e+00 3.0241957411629001e+00 1.7364265409120321e+01 2 1 -6
7318 2440 3 4.0999999999999998e-01 6.3215430379258422e+00 3.8230810277735565e+00 1.6321898058844880e+01 -6 -1 4
3535 1179 3 4.0999999999999998e-01 3.5169296099154468e+00 8.9064358442142169e+00 1.2171394058777016e+01 -1 2 0
2381 794 4 -8.1999999999999995e-01 1.0420559954815394e+01 6.5996989060442184e+00 1.8748084882426276e+01 3 6 0
3920 1307 4 -8.1999999999999995e-01 8.9832889899024639e+00 2.3944981480044718e+00 1.7325803191127033e+01 2 1 -6
6813 2271 3 4.0999999999999998e-01 1.0508080107591191e+00 1.6554786554199818e+00 1.3146424076916745e+01 1 3 -1
3680 1227 4 -8.1999999999999995e-01 2.8494883394857418e+00 1.1993666737849020e+00 1.2336839470962273e+01 -2 4 5
6099 2033 3 4.0999999999999998e-01 7.4992027000183645e+00 8.2907100499733168e+00 1.4044025164383678e+01 -4 3 -2
2531 844 4 -8.1999999999999995e-01 7.7632111018119865e+00 6.6237874272597486e-01 1.9281915171837081e+01 3 -3 -1
3681 1227 3 4.0999999999999998e-01 2.4884301911965570e+00 4.3662266328198068e-01 1.1777110041424187e+01 -2 4 5
3992 1331 4 -8.1999999999999995e-01 5.7043788667848778e+00 4.5756154324222233e+00 1.2103983624750260e+01 2 0 3
2382 794 3 4.0999999999999998e-01 1.0412215151136955e+01 6.9186894187955605e+00 1.9732154954737773e+01 3 6 0
5991 1997 3 4.0999999999999998e-01 2.2342443227689710e+00 4.5075699423729318e+00 1.1366528485202720e+01 2 -1 1
4713 1571 3 4.0999999999999998e-01 2.2167218039047740e+00 6.5952586558419162e+00 1.4336537338849880e+01 3 1 3
6105 2035 3 4.0999999999999998e-01 1.4196439565728463e+00 8.1874639313102424e+00 1.1122574268573947e+01 -4 3 2
7320 2440 3 4.0999999999999998e-01 6.5386740316144323e+00 4.8763221645092152e+00 1.7540719582526417e+01 -6 -1 4
4661 1554 4 -8.1999999999999995e-01 3.4504142934379951e+00 4.5543889895519616e+00 2.0266731865360342e+01 2 1 -1
6506 2169 4 -8.1999999999999995e-01 5.2956790171288084e+00 5.4582094810914814e+00 1.4728242152991793e+01 4 0 4
6909 2303 3 4.0999999999999998e-01 9.6018715766476515e+00 7.2578184309489044e+00 1.5896878174225241e+01 -3 0 1
2745 915 3 4.0999999999999998e-01 2.7304443929727684e+00 3.1493968501076988e+00 1.7082186998505730e+01 -1 -3 4
6585 2195 3 4.0999999999999998e-01 1.6726624752542723e+00 1.0488271548039963e+01 2.0070376051631801e+01 -1 -5 4
1947 649 3 4.0999999999999998e-01 2.8306989931472470e+00 6.8948509218416776e+00 1.7189271165872960e+01 -1 -1 1
2927 976 4 -8.1999999999999995e-01 3.1891749946431172e+00 4.8233043648281082e-01 1.5088214874556781e+01 -1 1 1
3679 1227 3 4.0999999999999998e-01 3.4714486534385238e+00 7.3938226796030304e-01 1.3007017546795014e+01 -2 4 5
4960 1654 3 4.0999999999999998e-01 4.3862274618424015e+00 1.0303457888824834e+01 1.4238952724423410e+01 4 -3 -1
3967 1323 3 4.0999999999999998e-01 1.0082156382908549e+01 4.6080286462278996e+00 1.2748578819566010e+01 1 0 1
5770 1924 3 4.0999999999999998e-01 1.6809247424780485e+00 8.4725568759582544e+00 1.5628923084419956e+01 -3 4 -1
4662 1554 3 4.0999999999999998e-01 3.1144675060909419e+00 3.5948582377294955e+00 2.0501553759855625e+01 2 1 -1
5772 1924 3 4.0999999999999998e-01 1.1278913571281473e+00 8.6468409844760004e+00 1.4006825068133960e+01 -3 4 -1
4668 1556 3 4.0999999999999998e-01 6.0653714548747146e+00 1.0008297829184819e+01 1.6056028847675215e+01 1 5 -4
2048 683 4 -8.1999999999999995e-01 2.3415466983249207e+00 2.1991921386621165e+00 2.0607417371616510e+01 -2 3 -2
1945 649 3 4.0999999999999998e-01 3.0956998063142196e+00 8.5013951328016493e+00 1.7039761827889745e+01 -1 -1 1
5989 1997 3 4.0999999999999998e-01 2.6669188413540734e+00 3.1606551078391014e+00 1.2042295249145353e+01 2 -1 1
2926 976 3 4.0999999999999998e-01 3.2936637113803906e+00 1.2137842034980657e+00 1.5815449412225513e+01 -1 1 1
1002 334 3 4.0999999999999998e-01 5.7590868795600727e+00 2.6346514067593620e+00 1.8390596295952719e+01 -1 -3 1
4711 1571 3 4.0999999999999998e-01 2.5814952257198804e+00 5.2052796361033611e+00 1.3401891949079751e+01 3 1 3
3953 1318 4 -8.1999999999999995e-01 3.0272801770061253e-01 9.6167876053424166e+00 1.2885744084573396e+01 6 -5 0
7337 2446 4 -8.1999999999999995e-01 8.4043259134355583e+00 3.5920906410464064e+00 1.1343645885941832e+01 3 -1 -3
5998 2000 3 4.0999999999999998e-01 1.9577092646117822e+00 1.0375878298667576e+01 1.7022729812716275e+01 -1 1 2
3648 1216 3 4.0999999999999998e-01 7.7090268684085723e+00 8.3252342952609624e+00 1.6861949804019307e+01 0 2 -2
396 132 3 4.0999999999999998e-01 5.9580944813530605e+00 6.4978913789087072e+00 1.9096774307591911e+01 -4 -1 2
996 332 3 4.0999999999999998e-01 1.6468498095149644e+00 5.1642530573314360e+00 1.7833470331308675e+01 1 1 3
6507 2169 3 4.0999999999999998e-01 5.6659461938460280e+00 6.4250965352393044e+00 1.4701450434464098e+01 4 0 4
6908 2303 4 -8.1999999999999995e-01 1.0420993559789848e+01 7.7082904646862040e+00 1.5466085105416861e+01 -3 0 1
6104 2035 4 -8.1999999999999995e-01 2.4096576754763364e+00 8.4752447158794801e+00 1.0988036160184571e+01 -4 3 2
5662 1888 3 4.0999999999999998e-01 8.5456758988464787e-01 4.9944307566050394e+00 1.4553438758329582e+01 0 3 1
2380 794 3 4.0999999999999998e-01 9.5762922614191091e+00 6.9658733267777908e+00 1.8312902049641519e+01 3 6 0
4667 1556 4 -8.1999999999999995e-01 6.8492337912168955e+00 9.7373615133219538e+00 1.6679438266733953e+01 1 5 -4
1051 351 3 4.0999999999999998e-01 5.8294247291254795e+00 8.4392528440907686e+00 1.5436620375156924e+01 -1 0 -2
2530 844 3 4.0999999999999998e-01 7.9482358650576712e+00 1.4265761405752244e+00 2.0004627909983661e+01 3 -3 -1
6524 2175 4 -8.1999999999999995e-01 9.0418838664353949e+00 1.0827429916039841e+00 1.2069132542489776e+01 2 -1 3
426 142 3 4.0999999999999998e-01 8.1890088130583329e+00 9.1937973486970677e+00 1.9588558300723083e+01 2 -2 1
3544 1182 3 4.0999999999999998e-01 3.1680606432260512e+00 5.2407590020481631e-01 1.8004529143345557e+01 -4 -2 0
2532 844 3 4.0999999999999998e-01 6.7815135437052536e+00 8.8207469662614568e-01 1.8998502970114412e+01 3 -3 -1
3536 1179 4 -8.1999999999999995e-01 4.1909017161236291e+00 9.3808397087651105e+00 1.2771817833330731e+01 -1 2 0
1001 334 4 -8.1999999999999995e-01 5.2860976894262937e+00 1.8265436338848735e+00 1.8891586275035749e+01 -1 -3 1
7319 2440 4 -8.1999999999999995e-01 6.8319209478396026e+00 3.9876190372057816e+00 1.7170476225894109e+01 -6 -1 4
6098 2033 4 -8.1999999999999995e-01 8.4834848449954876e+00 8.3466903381934348e+00 1.3796753047432734e+01 -4 3 -2
2047 683 3 4.0999999999999998e-01 1.6109018117779768e+00 1.5259785042095004e+00 2.0492471814559419e+01 -2 3 -2
995 332 4 -8.1999999999999995e-01 2.5000050368377891e+00 4.9376144906566983e+00 1.7307804374489120e+01 1 1 3
5999 2000 4 -8.1999999999999995e-01 1.4714011716319084e+00 9.4811474126231960e+00 1.6912043140812898e+01 -1 1 2
6022 2008 3 4.0999999999999998e-01 8.7471376760471120e+00 1.6654819790885811e+00 1.5849717819837329e+01 0 3 0
2801 934 4 -8.1999999999999995e-01 5.9243716912462299e+00 5.9045704865492787e+00 2.0838391303061908e+01 2 0 -2
2800 934 3 4.0999999999999998e-01 5.1401517536999775e+00 5.2890027280826768e+00 2.0641976969743638e+01 2 0 -2
4712 1571 4 -8.1999999999999995e-01 2.4494710465892897e+00 5.6030318847854828e+00 1.4324742986997546e+01 3 1 3
5771 1924 4 -8.1999999999999995e-01 1.7465038746298427e+00 8.1294710825197516e+00 1.4645584580796587e+01 -3 4 -1
4660 1554 3 4.0999999999999998e-01 3.3755150922728205e+00 4.5349609849379240e+00 1.9223815630586063e+01 2 1 -1
424 142 3 4.0999999999999998e-01 8.1710538733707043e+00 9.8203976212824244e+00 1.8069039903615558e+01 2 -2 1
5471 1824 4 -8.1999999999999995e-01 7.3181647203222600e+00 8.3783501018597182e+00 2.0827383817862739e+01 -1 0 -2
3952 1318 3 4.0999999999999998e-01 8.4366324107212420e-01 1.0335508768172831e+01 1.2405136758283964e+01 6 -5 0
2115 705 3 4.0999999999999998e-01 1.0193223605646065e+01 3.5845384444575514e+00 1.7432747601447982e+01 1 1 2
5472 1824 3 4.0999999999999998e-01 6.8334707025011596e+00 7.4765566462750934e+00 2.0883774658512142e+01 -1 0 -2
4753 1585 3 4.0999999999999998e-01 9.8668814001146945e+00 9.9719475605299337e+00 1.5791873175683202e+01 -1 -4 0
2881 961 3 4.0999999999999998e-01 9.7297141380340424e+00 8.8644984202115289e+00 1.2612639308791197e+01 -4 -3 4
3526 1176 3 4.0999999999999998e-01 4.0017286815094772e+00 9.9706488018831649e+00 1.9699849535535414e+01 2 3 -1
2882 961 4 -8.1999999999999995e-01 1.0574645845216905e+01 9.3384952269153736e+00 1.2191111967804357e+01 -4 -3 4
2113 705 3 4.0999999999999998e-01 1.0432917841280798e+01 5.2204439435663064e+00 1.8063918974878202e+01 1 1 2
1614 538 3 4.0999999999999998e-01 1.0464827458342578e+01 3.0093152042403593e+00 1.0604881050937314e+01 2 0 1
1445 482 4 -8.1999999999999995e-01 6.2427046737551510e+00 7.4178759509335599e+00 2.4150347223197983e+01 0 -2 1
1916 639 4 -8.1999999999999995e-01 6.5992899531989568e+00 9.1095623009016098e+00 2.6110779072883204e+01 1 2 -2
1917 639 3 4.0999999999999998e-01 6.4178144557214853e+00 8.5603313441849505e+00 2.7007122169835149e+01 1 2 -2
4215 1405 3 4.0999999999999998e-01 3.7947356924770821e+00 5.1078699340222080e+00 3.0683275301196161e+01 2 1 0
5446 1816 3 4.0999999999999998e-01 8.2379311442182406e+00 5.3523792075051517e+00 2.9192341478513615e+01 -2 0 -6
6494 2165 4 -8.1999999999999995e-01 4.2927765017969479e+00 8.7338528911951734e+00 2.9401184061506807e+01 3 -1 -2
3273 1091 3 4.0999999999999998e-01 8.1491547188461162e+00 2.2214175776189267e+00 2.7720142523287564e+01 4 5 1
2363 788 4 -8.1999999999999995e-01 4.5700253485194215e+00 1.0200449824795918e+01 2.3097152107179774e+01 -2 2 -2
5440 1814 3 4.0999999999999998e-01 5.8558131686454651e+00 6.0921592148356121e+00 2.7833973936367698e+01 2 5 -3
3488 1163 4 -8.1999999999999995e-01 7.9310968600135574e+00 5.5430738281006606e+00 2.3086420271244567e+01 0 0 -4
3998 1333 4 -8.1999999999999995e-01 1.5146561759451542e+00 7.6804466262253364e+00 2.2027425297363532e+01 0 -2 -1
64 22 3 4.0999999999999998e-01 1.3583335571826849e+00 8.1081996183158651e+00 2.3822009016635821e+01 1 -2 0
5442 1814 3 4.0999999999999998e-01 7.0535528584345748e+00 7.2380438735204198e+00 2.8265222097591909e+01 2 5 -3
3487 1163 3 4.0999999999999998e-01 8.6579811489093963e+00 5.3702855709936754e+00 2.3798708641309521e+01 0 0 -4
3999 1333 3 4.0999999999999998e-01 7.5740654071442626e-01 7.5408528173859404e+00 2.1347774027236330e+01 0 -2 -1
65 22 4 -8.1999999999999995e-01 1.2970343438740202e+00 8.1043296775774252e+00 2.4867714153658184e+01 1 -2 0
658 220 3 4.0999999999999998e-01 4.6776803164902638e+00 2.3361872019885292e+00 2.5208482472014481e+01 5 1 -2
286 96 3 4.0999999999999998e-01 1.0114841966252278e+01 3.0752268617579746e+00 2.8723471919090834e+01 -1 0 -3
1444 482 3 4.0999999999999998e-01 5.6899490073544401e+00 6.6545068996956243e+00 2.4682746704221667e+01 0 -2 1
983 328 4 -8.1999999999999995e-01 5.4457360675897384e+00 3.0482155332853442e+00 2.3965574297112909e+01 -1 3 2
6922 2308 3 4.0999999999999998e-01 2.8139106560562919e+00 9.8383835880310890e+00 2.9697069796410215e+01 3 -1 0
5739 1913 3 4.0999999999999998e-01 9.6821872960739483e+00 8.5841663823538070e+00 2.3884923232605352e+01 1 4 0
6927 2309 3 4.0999999999999998e-01 9.4101077046749868e+00 5.4588344391651553e+00 2.7065524203947845e+01 -3 -4 0
1770 590 3 4.0999999999999998e-01 9.4906224205134713e+00 6.9934874496477963e+00 2.5645885759170312e+01 2 2 1
2364 788 3 4.0999999999999998e-01 4.1126214172779276e+00 1.0223906967373349e+01 2.3968099355281037e+01 -2 2 -2
6414 2138 3 4.0999999999999998e-01 6.0082614218469823e+00 1.6750732274537854e+00 3.0248472879754328e+01 2 5 -1
6493 2165 3 4.0999999999999998e-01 4.7883898655511192e+00 9.6200642636665776e+00 2.9500167121191993e+01 3 -1 -2
5470 1824 3 4.0999999999999998e-01 7.7923135633020291e+00 8.4255175868834389e+00 2.1701395219906029e+01 -1 0 -2
984 328 3 4.0999999999999998e-01 6.4616970663702089e+00 2.9735065874355593e+00 2.4040845634237193e+01 -1 3 2
848 283 4 -8.1999999999999995e-01 8.9475060995021816e-01 8.7448235806922425e-01 2.4860401667187531e+01 -3 -1 1
5581 1861 3 4.0999999999999998e-01 2.6869506998247603e+00 5.0205263266454168e+00 2.1687830863670474e+01 3 0 0
5749 1917 3 4.0999999999999998e-01 9.7578899650767372e+00 9.3333124433366237e+00 2.8249562353541219e+01 0 2 1
1446 482 3 4.0999999999999998e-01 6.5113777918390525e+00 8.1925966620103505e+00 2.4788119421525355e+01 0 -2 1
5847 1949 3 4.0999999999999998e-01 5.3121557565936985e+00 2.3249183334326653e+00 2.2276695918941776e+01 -2 1 9
767 256 4 -8.1999999999999995e-01 1.8306325753781798e+00 5.8209636269768206e+00 2.6085417846225340e+01 -5 -3 0
5582 1861 4 -8.1999999999999995e-01 2.1648403005165151e+00 5.2052981526026860e+00 2.2565216364676310e+01 3 0 0
1915 639 3 4.0999999999999998e-01 7.0879190685420435e+00 1.0000839567319280e+01 2.6308167115908866e+01 1 2 -2
1834 612 3 4.0999999999999998e-01 3.9500401973516199e+00 2.2074416866909417e+00 2.7514460647009123e+01 2 -3 -3
849 283 3 4.0999999999999998e-01 9.0576007189275087e-01 8.2419571188980978e-01 2.5870403688895678e+01 -3 -1 1
659 220 4 -8.1999999999999995e-01 3.8719686977763441e+00 1.9442926810164163e+00 2.5800311071120746e+01 5 1 -2
3844 1282 3 4.0999999999999998e-01 1.1309127396019101e+00 4.0577530873061285e+00 3.1031053171976474e+01 0 -1 3
5447 1816 4 -8.1999999999999995e-01 9.1649827024305495e+00 5.4344698938826523e+00 2.8698541202944227e+01 -2 0 -6
2397 799 3 4.0999999999999998e-01 4.7043747229217674e+00 8.8911968012106986e+00 2.6014661675155299e+01 -1 0 -6
2395 799 3 4.0999999999999998e-01 3.2881061139163874e+00 9.8655888595680050e+00 2.6360849394841335e+01 -1 0 -6
924 308 3 4.0999999999999998e-01 8.0585020521329458e+00 1.5529443396827411e+00 2.2291739907841023e+01 3 1 1
922 308 3 4.0999999999999998e-01 8.4827574706290427e+00 3.0602757408105599e+00 2.1713165447342632e+01 3 1 1
1836 612 3 4.0999999999999998e-01 3.7335493618878002e+00 1.7637873437853764e+00 2.9049524015766153e+01 2 -3 -3
3489 1163 3 4.0999999999999998e-01 7.7076491696063476e+00 6.5520556762907507e+00 2.2838843851958192e+01 0 0 -4
3447 1149 3 4.0999999999999998e-01 6.2966625319487317e+00 3.9280390794829940e+00 2.7216781056990602e+01 -3 -4 -3
4435 1479 3 4.0999999999999998e-01 1.6072174270650976e+00 4.3628567367109081e+00 2.5246793264508966e+01 1 -4 1
2362 788 3 4.0999999999999998e-01 5.1909951641084131e+00 9.3957626396314549e+00 2.3040172115084054e+01 -2 2 -2