LAMMPS data file via write_data, version 5 Jun 2019, timestep = 15460000

7349 atoms
5 atom types
4899 bonds
2 bond types
2451 angles
2 angle types
1 impropers
1 improper types

1.5519297081455363e-01 4.1845807029189409e+01 xlo xhi
1.5469297081455124e-01 4.1845307029189406e+01 ylo yhi
1.5469297081455124e-01 4.1845307029189406e+01 zlo zhi

#Masses
#
#1 12.01
#2 40.08
#3 1.01
#4 16
#5 16
#
#Bond Coeffs # harmonic
#
#1 20.4246 1.3042
#2 22.965 1.012

Atoms # full

2052 684 3 4.0999999999999998e-01 7.5036501278036223e+00 9.3760076008658508e+00 3.9493576561061290e+00 -1 -2 -1
3196 1066 3 4.0999999999999998e-01 8.7049258205552569e+00 8.9690637804268185e+00 1.0433305557118699e+01 -3 -1 -1
2636 879 4 -8.1999999999999995e-01 9.3554121110828810e+00 2.9416834702081038e+00 6.9982357733612277e+00 3 -2 -2
2278 760 3 4.0999999999999998e-01 6.1925476364251715e+00 9.4192651391649349e+00 1.3876039416328654e+00 4 -1 0
6928 2310 3 4.0999999999999998e-01 1.0060726548640153e+01 1.5477694202807422e+00 3.4702457401666726e+00 2 1 2
6929 2310 4 -8.1999999999999995e-01 1.0504316591284532e+01 2.0072255607244625e+00 4.2601763780392421e+00 2 1 2
1256 419 4 -8.1999999999999995e-01 4.7491320195649678e+00 8.3707976668610389e+00 2.2691847098564240e+00 -2 -6 1
2839 947 3 4.0999999999999998e-01 2.7712750020187267e+00 7.5461564141491522e+00 5.9181130867678791e+00 -1 -4 3
1255 419 3 4.0999999999999998e-01 3.7193131646107540e+00 8.5755589296654282e+00 2.4323847962123217e+00 -2 -6 1
6460 2154 3 4.0999999999999998e-01 7.8765313116644800e+00 6.4668928127305971e+00 3.2801405048988297e+00 -2 1 2
4304 1435 4 -8.1999999999999995e-01 5.8575675843133688e+00 4.5384697475894304e+00 5.7019953890461252e+00 -1 -4 2
5306 1769 4 -8.1999999999999995e-01 1.7891020359106158e+00 1.0068766094771455e+00 8.2768543394337453e+00 1 1 -2
6050 2017 4 -8.1999999999999995e-01 1.0057620596477161e+01 4.8469425297907982e+00 4.8034495949070930e+00 0 3 -1
5367 1789 3 4.0999999999999998e-01 4.5881349551095481e+00 8.7301112425168146e+00 6.1652035774436538e+00 -1 -2 2
5366 1789 4 -8.1999999999999995e-01 5.2090693389175939e+00 9.2654487118173492e+00 6.8028602532035736e+00 -1 -2 2
5908 1970 3 4.0999999999999998e-01 9.7092996732681076e+00 9.5906531187330835e+00 2.4656363791725777e+00 5 -1 -4
6360 2120 3 4.0999999999999998e-01 7.3741214322310853e+00 3.4819761234317723e+00 3.3820851055258905e-01 2 -1 -6
5720 1907 4 -8.1999999999999995e-01 1.0457938011110160e+01 9.4000625290251776e+00 4.3242847317469941e+00 0 4 -1
5883 1961 3 4.0999999999999998e-01 5.5497250204864219e+00 1.8494834938023759e+00 9.8848717045862795e+00 -4 1 1
4323 1441 3 4.0999999999999998e-01 1.0949646518715404e+00 8.9962547786991411e+00 2.7192505253260846e+00 -1 1 3
4321 1441 3 4.0999999999999998e-01 2.3428566214152555e+00 1.0223915604666729e+01 2.5978147575070336e+00 -1 1 3
4303 1435 3 4.0999999999999998e-01 5.7530956188268467e+00 3.6546030777810006e+00 6.2281572887352965e+00 -1 -4 2
4331 1444 4 -8.1999999999999995e-01 4.0562184168981714e+00 1.0203307973664105e+01 9.2794450853461115e+00 2 1 0
6462 2154 3 4.0999999999999998e-01 6.7532785277743050e+00 5.3680542100799711e+00 2.7060517150355277e+00 -2 1 2
3765 1255 3 4.0999999999999998e-01 4.7163438925922883e+00 6.8980159560110970e+00 1.0176383825412831e+00 -2 7 3
5305 1769 3 4.0999999999999998e-01 2.1342346674329291e+00 1.5803614617188420e+00 7.5149394747398670e+00 1 1 -2
2279 760 4 -8.1999999999999995e-01 6.8683034058120525e+00 9.7255754551183866e+00 6.6922859434229054e-01 4 -1 0
6358 2120 3 4.0999999999999998e-01 7.7061202356000429e+00 4.4115579973131123e+00 1.6656632123611399e+00 2 -1 -6
5665 1889 3 4.0999999999999998e-01 2.9581053243719766e+00 1.0883758088856348e+00 9.5079850786139417e+00 0 0 1
2841 947 3 4.0999999999999998e-01 2.6331000960658857e+00 8.4452796033603139e+00 4.4524464234099028e+00 -1 -4 3
4537 1513 3 4.0999999999999998e-01 2.0287826733548102e+00 7.0938183652309919e+00 8.0879421213454812e+00 0 2 3
5527 1843 3 4.0999999999999998e-01 1.0303313639339628e+01 7.5458157292548886e+00 5.0434336058566076e-01 -2 2 0
1954 652 3 4.0999999999999998e-01 1.3134399991864110e+00 7.3757506390892393e+00 3.4416267293017002e+00 -1 -1 0
6008 2003 4 -8.1999999999999995e-01 4.7065394203614366e+00 4.7690009673617180e+00 1.0096578894962208e+01 -1 2 -3
5939 1980 4 -8.1999999999999995e-01 4.5566106713494969e-01 8.9526086642940985e+00 5.2648981771978542e+00 2 5 -1
6359 2120 4 -8.1999999999999995e-01 7.4045597907886327e+00 3.4809627380482473e+00 1.3283546888726689e+00 2 -1 -6
6039 2013 3 4.0999999999999998e-01 5.1385398223802206e+00 2.9154226779560508e+00 3.6489893532660163e+00 -2 4 1
6038 2013 4 -8.1999999999999995e-01 5.2840943909220224e+00 2.4028419970175721e+00 2.7265228993698738e+00 -2 4 1
2795 932 4 -8.1999999999999995e-01 8.2640551191424771e-01 1.5095924249874919e+00 6.4613534228976244e-01 0 3 3
3958 1320 3 4.0999999999999998e-01 2.5621153172884306e+00 2.0845865237727276e-01 1.7624831190924961e+00 3 2 1
5109 1703 3 4.0999999999999998e-01 8.7497052100964652e+00 2.2560324629419393e+00 1.7683459779823365e+00 0 2 1
247 83 3 4.0999999999999998e-01 1.0491413284621093e+01 4.6620315000427426e-01 7.6629564516963855e+00 3 0 3
5882 1961 4 -8.1999999999999995e-01 6.1046729960623551e+00 2.6387082968018358e+00 9.5576990545990892e+00 -4 1 1
6459 2153 3 4.0999999999999998e-01 7.6978744303622895e+00 7.5968661746065846e+00 5.4595830055713197e+00 -2 0 1
2637 879 3 4.0999999999999998e-01 9.6524348796850798e+00 3.3380954938531642e+00 6.1125372857401254e+00 3 -2 -2
1821 607 3 4.0999999999999998e-01 8.6196339581888459e+00 5.1181488122363001e+00 9.7734026495408983e+00 2 -3 1
6009 2003 3 4.0999999999999998e-01 5.1153960148775157e+00 3.7957870809752330e+00 1.0012254808645949e+01 -1 2 -3
5881 1961 3 4.0999999999999998e-01 7.1218852946248674e+00 2.5663064108897582e+00 9.8163851800450885e+00 -4 1 1
4786 1596 3 4.0999999999999998e-01 2.5935966225112259e+00 4.6647673423052582e+00 1.0423291266007242e+01 5 -2 2
4305 1435 3 4.0999999999999998e-01 6.5576877370385311e+00 5.1522159318828367e+00 6.1580647087713558e+00 -1 -4 2
3583 1195 3 4.0999999999999998e-01 1.5992161636422992e+00 4.6758788916359464e+00 5.7010195648692985e+00 0 -7 3
3008 1003 4 -8.1999999999999995e-01 5.0173442295109583e+00 5.4345904815008828e+00 3.4054036676719437e+00 2 -3 -3
6037 2013 3 4.0999999999999998e-01 5.9990900993583960e+00 2.9316206686965867e+00 2.2142648755488792e+00 -2 4 1
2184 728 3 4.0999999999999998e-01 6.1868875626764011e+00 6.4627157554802777e+00 7.5491798767092266e+00 0 2 3
2840 947 4 -8.1999999999999995e-01 3.2393378573183784e+00 8.1828302269561579e+00 5.2052503280253202e+00 -1 -4 3
6910 2304 3 4.0999999999999998e-01 4.5949026044873547e+00 5.9464878949868245e+00 8.8730704321181726e+00 4 -2 0
2280 760 3 4.0999999999999998e-01 7.8157203657507912e+00 9.5292317221670686e+00 9.8769708611679197e-01 4 -1 0
2183 728 4 -8.1999999999999995e-01 7.0561381435231327e+00 6.6414161912895828e+00 7.0597840744770552e+00 0 2 3
6457 2153 3 4.0999999999999998e-01 8.9803410793119571e+00 8.1969423634028136e+00 4.5060662976724615e+00 -2 0 1
3470 1157 4 -8.1999999999999995e-01 5.6571510530346396e+00 2.2266999949522766e+00 7.0391433750966508e+00 -3 1 4
4816 1606 3 4.0999999999999998e-01 3.2999528451283808e+00 8.3987554521929333e+00 1.0253514356399569e+01 1 -1 1
6461 2154 4 -8.1999999999999995e-01 7.7666307028354504e+00 5.6292047972474171e+00 2.7010304462912105e+00 -2 1 2
6930 2310 3 4.0999999999999998e-01 1.0490269378331616e+01 3.0182180842367998e+00 4.3549770837785413e+00 2 1 2
2635 879 3 4.0999999999999998e-01 9.1885815468300915e+00 1.9400524884799195e+00 6.9923075599809179e+00 3 -2 -2
1819 607 3 4.0999999999999998e-01 8.8787345953365460e+00 4.2764640988679172e+00 8.3403312921024888e+00 2 -3 1
3009 1003 3 4.0999999999999998e-01 5.2877252498278100e+00 4.9989559165603277e+00 4.3609242619540716e+00 2 -3 -3
5909 1970 4 -8.1999999999999995e-01 9.5016436650790972e+00 9.6311440095375005e+00 1.4893649189102480e+00 5 -1 -4
5307 1769 3 4.0999999999999998e-01 7.9646995704324841e-01 1.1132705630434445e+00 8.3304572984059586e+00 1 1 -2
5943 1981 3 4.0999999999999998e-01 2.7548923101574635e-01 4.1219177566758241e+00 9.5011970210838097e+00 0 -2 1
3585 1195 3 4.0999999999999998e-01 2.0909741030080684e+00 3.2708015496509630e+00 5.2255393853724019e+00 0 -7 3
3469 1157 3 4.0999999999999998e-01 6.1041512336012200e+00 1.3331397717577882e+00 6.8672396679024086e+00 -3 1 4
2418 806 3 4.0999999999999998e-01 4.1278740772157327e+00 2.4994616740028275e+00 6.6297376922306208e+00 2 2 -1
3960 1320 3 4.0999999999999998e-01 4.0325887242590515e+00 1.0019074399499861e+00 1.9240662778992970e+00 3 2 1
1257 419 3 4.0999999999999998e-01 5.2199441679697163e+00 9.0727693738744097e+00 2.7830750754077327e+00 -2 -6 1
6458 2153 4 -8.1999999999999995e-01 8.0347782850862863e+00 7.7736575011315168e+00 4.4860920058095681e+00 -2 0 1
4787 1596 4 -8.1999999999999995e-01 1.7743500014294402e+00 5.2968750506602609e+00 1.0311769050482319e+01 5 -2 2
2182 728 3 4.0999999999999998e-01 7.7296518916643571e+00 6.6109103942592924e+00 7.8160479613575937e+00 0 2 3
6765 2255 3 4.0999999999999998e-01 3.2624198605155317e+00 2.3887516964123279e-01 3.9672198113278965e+00 3 2 4
6911 2304 4 -8.1999999999999995e-01 4.5139016435305264e+00 6.6752083790873549e+00 8.1414105162841430e+00 4 -2 0
1820 607 4 -8.1999999999999995e-01 9.0405408749848171e+00 5.2008342152653837e+00 8.8177463045014814e+00 2 -3 1
4322 1441 4 -8.1999999999999995e-01 2.1005377359262076e+00 9.2726907766612605e+00 2.8728379184413524e+00 -1 1 3
2794 932 3 4.0999999999999998e-01 8.9750565281891448e-01 2.3873129892314480e+00 1.1697553697861827e+00 0 3 3
3584 1195 4 -8.1999999999999995e-01 1.3703445886828152e+00 3.9500237678039980e+00 4.9983378437779669e+00 0 -7 3
3007 1003 3 4.0999999999999998e-01 4.9652515122284795e+00 6.4148479672097229e+00 3.5640589936238674e+00 2 -3 -3
6414 2138 3 4.0999999999999998e-01 8.7936753860552219e-01 3.6900203930224089e+00 3.2743084703557419e+00 3 5 -1
3444 1148 3 4.0999999999999998e-01 3.7893901517952457e+00 5.2890026781971038e+00 5.3944368446278357e-01 -4 3 4
5107 1703 3 4.0999999999999998e-01 8.3336371108152250e+00 6.6839654596196552e-01 2.1341151205544913e+00 0 2 1
5365 1789 3 4.0999999999999998e-01 5.3910910415400446e+00 8.6909149031045896e+00 7.6476158064972219e+00 -1 -2 2
3471 1157 3 4.0999999999999998e-01 5.7851762843815910e+00 2.4032948236853948e+00 8.0467649692378291e+00 -3 1 4
5108 1703 4 -8.1999999999999995e-01 9.1255640471893091e+00 1.2840662725389163e+00 1.8235907085973451e+00 0 2 1
2417 806 4 -8.1999999999999995e-01 3.2185606451964128e+00 2.3773097679565613e+00 6.1758491246641212e+00 2 2 -1
2416 806 3 4.0999999999999998e-01 3.2774297758693396e+00 1.4388763469644750e+00 5.7349039778480932e+00 2 2 -1
2050 684 3 4.0999999999999998e-01 6.0847272833946997e+00 1.0382637720434024e+01 4.2041647927294861e+00 -1 -2 -1
6324 2108 3 4.0999999999999998e-01 2.5875585663099230e+00 6.6763097717962525e+00 2.0812981245912082e-01 5 1 -3
1393 465 3 4.0999999999999998e-01 5.2277120504737056e+00 1.0425194789294213e+01 5.7675190748809557e+00 4 -2 -1
4539 1513 3 4.0999999999999998e-01 8.8564520431427696e-01 6.9358435949755188e+00 6.9851095988541338e+00 0 2 3
6049 2017 3 4.0999999999999998e-01 9.1731299007015341e+00 5.3399073437365860e+00 4.6358216648240163e+00 0 3 -1
4332 1444 3 4.0999999999999998e-01 4.2863673552547441e+00 1.0043561099344302e+01 8.3062270213074978e+00 2 1 0
6912 2304 3 4.0999999999999998e-01 3.6581343238458044e+00 6.4415027779937937e+00 7.5898774634659487e+00 4 -2 0
4806 1602 3 4.0999999999999998e-01 9.9353214314670328e+00 6.0927930346203762e-01 5.3711113001209165e+00 -1 3 2
3443 1148 4 -8.1999999999999995e-01 3.2567803574905461e+00 4.6576188481549421e+00 1.1895048989526298e+00 -4 3 4
1955 652 4 -8.1999999999999995e-01 5.9387666414517704e-01 6.6945073483279431e+00 3.4572643940982752e+00 -1 -1 0
2051 684 4 -8.1999999999999995e-01 6.8299505102319698e+00 1.0053557213543007e+01 3.5014449910470309e+00 -1 -2 -1
6412 2138 3 4.0999999999999998e-01 1.7034636312674816e+00 4.1762144008167512e+00 1.8110488472766699e+00 3 5 -1
5666 1889 4 -8.1999999999999995e-01 3.6947593908866709e+00 1.2945572378081929e+00 1.0224181961320360e+01 0 0 1
3442 1148 3 4.0999999999999998e-01 3.7603620054193545e+00 4.6977462861389023e+00 2.1006875376907690e+00 -4 3 4
4538 1513 4 -8.1999999999999995e-01 1.8544134781703545e+00 6.8065155721866200e+00 7.2052157725304742e+00 0 2 3
6413 2138 4 -8.1999999999999995e-01 9.2620001111354211e-01 3.6300626759945551e+00 2.2524560144454164e+00 3 5 -1
4805 1602 4 -8.1999999999999995e-01 9.6950154725354594e+00 2.2767257710518532e-01 6.3321587494674807e+00 -1 3 2
4719 1573 3 4.0999999999999998e-01 6.3236674859783424e+00 2.8713115466825412e-01 2.5937334068344642e+00 2 0 -2
1956 652 3 4.0999999999999998e-01 5.6311515470397855e-01 5.9866246206460696e+00 4.2019532917657179e+00 -1 -1 0
6661 2221 3 4.0999999999999998e-01 1.8638573675102221e+00 1.0290676543627590e+01 5.8258202199441866e+00 0 -2 2
5910 1970 3 4.0999999999999998e-01 9.9677808098917158e+00 1.0469347053550884e+01 1.1154128494836921e+00 5 -1 -4
4788 1596 3 4.0999999999999998e-01 2.0375974127505363e+00 6.3010382968852614e+00 1.0416770702905719e+01 5 -2 2
6322 2108 3 4.0999999999999998e-01 8.3348944214276011e-01 6.7151229878009753e+00 2.8649006517650832e-01 5 1 -3
4160 1387 4 -8.1999999999999995e-01 1.0511978463172165e+01 6.9829754512744460e+00 1.7003760307424116e+01 -1 3 -2
2610 870 3 4.0999999999999998e-01 3.0922912826654141e+00 7.9244162295986245e+00 1.4005468652855482e+01 2 -2 3
1444 482 3 4.0999999999999998e-01 5.7914907822477446e-01 1.0064521617045997e+01 1.5997843898664549e+01 0 -1 2
2190 730 3 4.0999999999999998e-01 3.6408219405294733e+00 5.6490690876953247e+00 1.3423858362151931e+01 -2 1 -2
6632 2211 4 -8.1999999999999995e-01 4.3025034005400560e+00 6.0267501834762314e+00 1.7140558333213320e+01 1 -1 -2
5846 1949 4 -8.1999999999999995e-01 7.3743951401377119e+00 6.3063327115089018e+00 1.0890335035394196e+01 -1 0 6
3729 1243 3 4.0999999999999998e-01 7.3027849711803965e+00 4.7430406480098597e+00 1.7179340847049396e+01 0 1 -2
4210 1404 3 4.0999999999999998e-01 6.4033586947160428e+00 1.6972610645162223e+00 1.4360634354554659e+01 -1 -3 -3
2189 730 4 -8.1999999999999995e-01 4.2634811852693106e+00 5.8702928039017426e+00 1.2729445103487036e+01 -2 1 -2
4817 1606 4 -8.1999999999999995e-01 2.4081770374558187e+00 8.1060086659636532e+00 1.0659767254723134e+01 1 -1 1
21 7 3 4.0999999999999998e-01 1.6590639036890980e+00 3.9098313963346181e+00 1.7709657214546432e+01 2 -3 -4
439 147 3 4.0999999999999998e-01 8.6633402295777628e+00 3.9959498720720417e+00 1.9622907733496302e+01 -1 4 0
2273 758 4 -8.1999999999999995e-01 3.6412641735447635e+00 1.7852777640768083e+00 1.9075347234445488e+01 2 3 -1
4676 1559 4 -8.1999999999999995e-01 6.5961045840125090e+00 8.3645493994102118e+00 1.8056956948779131e+01 3 2 4
657 219 3 4.0999999999999998e-01 9.3033926919002088e+00 2.7555886515460899e+00 1.0978819285088916e+01 0 1 4
4942 1648 3 4.0999999999999998e-01 7.0176464445294506e-01 1.6616312084066862e+00 2.0588001240195705e+01 3 -1 -2
4818 1606 3 4.0999999999999998e-01 1.8077627718890275e+00 8.9772753087637227e+00 1.0722869571341691e+01 1 -1 1
3284 1095 4 -8.1999999999999995e-01 6.6612305363588753e+00 6.8521334039464801e+00 1.3995295493789051e+01 -4 1 -4
2798 933 4 -8.1999999999999995e-01 5.6389276946283440e-01 4.7296615575886367e+00 1.9902024605429332e+01 3 2 2
4435 1479 3 4.0999999999999998e-01 4.5136132105291110e-01 7.4032628847973250e+00 1.7756071869262922e+01 1 -3 0
978 326 3 4.0999999999999998e-01 6.6711159148555064e+00 5.0169844620825081e+00 1.3320535333475737e+01 -3 3 2
115 39 3 4.0999999999999998e-01 4.0487084580857173e+00 2.6097310648678249e+00 1.3383077289624982e+01 0 4 3
3972 1324 3 4.0999999999999998e-01 8.9804021819000575e+00 7.5454856558193235e+00 2.0163177293763006e+01 1 -2 -6
976 326 3 4.0999999999999998e-01 7.7730331197792371e+00 3.8899638482011709e+00 1.3609367324917079e+01 -3 3 2
4161 1387 3 4.0999999999999998e-01 1.0092246324906174e+01 7.2333952002339812e+00 1.7900140937424624e+01 -1 3 -2
656 219 4 -8.1999999999999995e-01 8.3402562349983480e+00 2.9108925604618126e+00 1.0743647647973573e+01 0 1 4
4211 1404 4 -8.1999999999999995e-01 7.1886648625379648e+00 1.3221168590392911e+00 1.4869218821515057e+01 -1 -3 -3
441 147 3 4.0999999999999998e-01 8.7936241228037364e+00 5.5581225683111635e+00 1.9008633532630682e+01 -1 4 0
4437 1479 3 4.0999999999999998e-01 4.8938050879382672e-01 9.0889850614396597e+00 1.7948842615306486e+01 1 -3 0
2098 700 3 4.0999999999999998e-01 4.3762902996962234e+00 9.0453771105399277e+00 1.4937297589341423e+01 -2 1 -2
7082 2361 4 -8.1999999999999995e-01 3.2461578319360529e-01 1.0182573900848237e+01 1.0855219335899617e+01 1 -2 0
4476 1492 3 4.0999999999999998e-01 8.6764600676533714e+00 6.2157831796451744e+00 1.2014066306242650e+01 -1 -2 -2
2188 730 3 4.0999999999999998e-01 5.1140126121847098e+00 6.3850962648872720e+00 1.3060169540954861e+01 -2 1 -2
3198 1066 3 4.0999999999999998e-01 8.2326003190813406e+00 9.7165539324350458e+00 1.1830025787736327e+01 -3 -1 -1
3727 1243 3 4.0999999999999998e-01 7.0905901561704026e+00 4.9510754029747090e+00 1.5502311882168051e+01 0 1 -2
742 248 3 4.0999999999999998e-01 2.5926813454704725e+00 3.7409629164064868e+00 1.2731233606055470e+01 3 4 0
2306 769 4 -8.1999999999999995e-01 6.2568687212514105e+00 5.7293241175254717e-01 1.8537369676368076e+01 -2 1 2
4063 1355 3 4.0999999999999998e-01 9.9546973973545523e+00 8.1977778005894066e+00 1.4052334255331257e+01 -3 0 2
4350 1450 3 4.0999999999999998e-01 6.7645287649363550e-01 5.1092046802799400e+00 1.1616530799768483e+01 0 -1 4
743 248 4 -8.1999999999999995e-01 2.7389723493421214e+00 2.8775522049883087e+00 1.2124664799334244e+01 3 4 0
3728 1243 4 -8.1999999999999995e-01 6.8044196278806979e+00 5.2231314827661306e+00 1.6441231197205276e+01 0 1 -2
2608 870 3 4.0999999999999998e-01 2.4770890689750051e+00 8.3268783476863586e+00 1.2505412672404935e+01 2 -2 3
3971 1324 4 -8.1999999999999995e-01 8.8496525634215164e+00 7.2635978742137457e+00 1.9195251379747496e+01 1 -2 -6
1573 525 3 4.0999999999999998e-01 9.9100778351097087e+00 4.2093257073673707e+00 1.7489810984870942e+01 2 0 1
4212 1404 3 4.0999999999999998e-01 8.0447880360362873e+00 1.8827435063807434e+00 1.4724370672656521e+01 -1 -3 -3
2100 700 3 4.0999999999999998e-01 4.4789952329324123e+00 7.7680202875442026e+00 1.6143203293360123e+01 -2 1 -2
2274 758 3 4.0999999999999998e-01 4.3740868861443714e+00 2.2848388982856167e+00 1.9568361001288022e+01 2 3 -1
6633 2211 3 4.0999999999999998e-01 3.7367257439820056e+00 5.1713961182376389e+00 1.7171851454241288e+01 1 -1 -2
4683 1561 3 4.0999999999999998e-01 4.0061525054085880e+00 7.4088223675324816e-01 1.3889157838238789e+01 1 -2 3
2099 700 4 -8.1999999999999995e-01 4.3719962063322235e+00 8.0642456640305298e+00 1.5151167227570570e+01 -2 1 -2
117 39 3 4.0999999999999998e-01 5.5690494694882000e+00 3.0850871148220245e+00 1.3361626427471895e+01 0 4 3
4436 1479 4 -8.1999999999999995e-01 5.1341667546474623e-01 8.1546825448581668e+00 1.8445058598229696e+01 1 -3 0
626 209 4 -8.1999999999999995e-01 1.8608336299993626e+00 6.9604544786285985e+00 2.0440394504852510e+01 0 -4 -1
625 209 3 4.0999999999999998e-01 1.3224250343178643e+00 6.1041089511987385e+00 2.0248519941162606e+01 0 -4 -1
2859 953 3 4.0999999999999998e-01 9.5673594191427789e+00 4.9964184738397197e+00 1.4169531819414134e+01 -4 0 -3
4514 1505 4 -8.1999999999999995e-01 5.3568531989373049e+00 3.4674213845966730e+00 2.0456866824516592e+01 -2 2 -2
4513 1505 3 4.0999999999999998e-01 5.3999511261341802e+00 4.3898050556081412e+00 2.0789395554746534e+01 -2 2 -2
4675 1559 3 4.0999999999999998e-01 6.2115418575180295e+00 9.3346415117759740e+00 1.8119013131712336e+01 3 2 4
7030 2344 3 4.0999999999999998e-01 2.5212207525429804e+00 4.8296359110614500e+00 1.5425517995110020e+01 -1 2 3
2305 769 3 4.0999999999999998e-01 6.4758657389869851e+00 6.7634979171489351e-01 1.7517772841780666e+01 -2 1 2
6007 2003 3 4.0999999999999998e-01 4.5534079070645399e+00 4.9635153992449244e+00 1.1106408165454107e+01 -1 2 -3
116 39 4 -8.1999999999999995e-01 4.9970108186884641e+00 2.2970057659749030e+00 1.3668651233897382e+01 0 4 3
2857 953 3 4.0999999999999998e-01 9.4344918692030451e+00 4.2868116183338776e+00 1.5728649325615482e+01 -4 0 -3
627 209 3 4.0999999999999998e-01 1.5510935924135880e+00 7.6657968790840805e+00 1.9778531225777861e+01 0 -4 -1
3197 1066 4 -8.1999999999999995e-01 8.0944842081634913e+00 8.9175076501538335e+00 1.1208987879523679e+01 -3 -1 -1
6971 2324 4 -8.1999999999999995e-01 3.9226661762363702e-01 1.8806527599785337e+00 1.2133484442967166e+01 4 2 1
2307 769 3 4.0999999999999998e-01 5.4779118587380919e+00 1.1799939307086946e+00 1.8682176655795100e+01 -2 1 2
19 7 3 4.0999999999999998e-01 2.9933996721928509e+00 2.8872470863090842e+00 1.7982344890665107e+01 2 -3 -4
4677 1559 3 4.0999999999999998e-01 5.8672923807724269e+00 7.7095092456425043e+00 1.7896973844380014e+01 3 2 4
3285 1095 3 4.0999999999999998e-01 7.6919198305504777e+00 6.9019874090282247e+00 1.4284526501977890e+01 -4 1 -4
4159 1387 3 4.0999999999999998e-01 9.8523754883723900e+00 7.1918009679155164e+00 1.6247240878167396e+01 -1 3 -2
3970 1324 3 4.0999999999999998e-01 8.0676211406562697e+00 7.7901356401070254e+00 1.8843315234210227e+01 1 -2 -6
655 219 3 4.0999999999999998e-01 7.8011230183006015e+00 3.1323954041217728e+00 1.1594458985592750e+01 0 1 4
4475 1492 4 -8.1999999999999995e-01 9.5974527653488533e+00 6.0820645143773637e+00 1.2414198720238922e+01 -1 -2 -2
2858 953 4 -8.1999999999999995e-01 8.9718722965820312e+00 4.5056247802319831e+00 1.4791287747697830e+01 -4 0 -3
4064 1355 4 -8.1999999999999995e-01 9.2260348491296220e+00 8.2072450643386610e+00 1.4767090609625360e+01 -3 0 2
2272 758 3 4.0999999999999998e-01 3.0584958670753513e+00 1.2939287168657696e+00 1.9841920648552033e+01 2 3 -1
4433 1478 4 -8.1999999999999995e-01 4.5585018846974767e+00 6.1565123754081048e+00 2.0365874923631321e+01 3 1 4
977 326 4 -8.1999999999999995e-01 6.9140271850160833e+00 4.0815865418767547e+00 1.3094214958009955e+01 -3 3 2
4432 1478 3 4.0999999999999998e-01 4.8885732468754357e+00 6.1242941128781681e+00 1.9433580635162155e+01 3 1 4
6631 2211 3 4.0999999999999998e-01 5.2080802780630133e+00 5.8068195193393395e+00 1.6750227469806223e+01 1 -1 -2
20 7 4 -8.1999999999999995e-01 2.6513360351898427e+00 3.7291744289403521e+00 1.7535474098861453e+01 2 -3 -4
4479 1493 3 4.0999999999999998e-01 7.7915495570001758e-01 8.5419034610281503e+00 1.4341255887490272e+01 3 2 -5
2609 870 4 -8.1999999999999995e-01 2.2875370737324876e+00 8.3388281259412480e+00 1.3493085115735527e+01 2 -2 3
744 248 3 4.0999999999999998e-01 1.7921714107578264e+00 2.4339494926601617e+00 1.1931772379093985e+01 3 4 0
440 147 4 -8.1999999999999995e-01 8.8024020131580514e+00 4.5448493950481392e+00 1.8709242030951181e+01 -1 4 0
4434 1478 3 4.0999999999999998e-01 3.7109324842656894e+00 6.7070321476255756e+00 2.0337822948761559e+01 3 1 4
5667 1889 3 4.0999999999999998e-01 3.2709056271398609e+00 1.8042197460855884e+00 1.1021979386226690e+01 0 0 1
4065 1355 3 4.0999999999999998e-01 8.8028610780048631e+00 9.1722716463244272e+00 1.4870738235154670e+01 -3 0 2
7031 2344 4 -8.1999999999999995e-01 2.4116612812924099e+00 4.8123779878026580e+00 1.4458192605217004e+01 -1 2 3
3283 1095 3 4.0999999999999998e-01 6.2064674090841825e+00 7.5844979901599441e+00 1.4524389950655790e+01 -4 1 -4
7032 2344 3 4.0999999999999998e-01 1.4581740497427471e+00 4.9504789672460179e+00 1.4299007738310012e+01 -1 2 3
3767 1256 4 -8.1999999999999995e-01 1.7301297948964456e+00 2.3199559650088147e-01 2.0348650267377437e+01 0 2 -3
5847 1949 3 4.0999999999999998e-01 7.4096718552405578e+00 7.2717983230875127e+00 1.1103766589985796e+01 -1 0 6
4474 1492 3 4.0999999999999998e-01 1.0063153581687901e+01 7.0113956609411305e+00 1.2440271531644967e+01 -1 -2 -2
2797 933 3 4.0999999999999998e-01 3.5031593524066085e-01 3.8048538797678417e+00 2.0305345768689108e+01 3 2 2
4515 1505 3 4.0999999999999998e-01 6.2221506950085690e+00 3.0830553841678392e+00 2.0289336876614016e+01 -2 2 -2
735 245 3 4.0999999999999998e-01 1.0485837753333362e+01 4.6953673070804243e+00 1.2228091295306482e+01 -3 1 1
2472 824 3 4.0999999999999998e-01 4.2510870502443820e+00 1.0432793222155045e+01 1.6211839349460636e+01 0 3 -1
5845 1949 3 4.0999999999999998e-01 6.3649290317864926e+00 5.9702249888865380e+00 1.0735828736224036e+01 -1 0 6
695 232 4 -8.1999999999999995e-01 1.7162720037541646e+00 5.5839605895022251e+00 2.9444244588135266e+01 -2 0 -1
2400 800 3 4.0999999999999998e-01 3.0727823723122034e+00 2.9172596515513480e+00 2.3846053052884738e+01 2 2 0
3144 1048 3 4.0999999999999998e-01 9.2879646595739160e+00 8.9469646197772352e+00 2.1873898049987943e+01 1 2 -4
2020 674 3 4.0999999999999998e-01 1.5248698060474217e+00 4.4620666713472827e+00 2.5056585457551883e+01 0 -1 4
1291 431 3 4.0999999999999998e-01 2.0121100228963447e+00 8.6709426153124873e+00 2.7075331965064553e+01 -1 -2 -2
3181 1061 3 4.0999999999999998e-01 5.4980252200150712e+00 9.4609366523215304e+00 2.6798141389032232e+01 -2 -3 -1
3099 1033 3 4.0999999999999998e-01 9.1763803505075803e+00 3.4987403586428201e+00 2.1471692042917969e+01 0 -1 0
7132 2378 3 4.0999999999999998e-01 9.8876895209275109e+00 1.6512925615526408e+00 2.8770923751053068e+01 2 5 -1
1293 431 3 4.0999999999999998e-01 3.2845802328940072e+00 9.5618695189281748e+00 2.6347954172511233e+01 -1 -2 -2
211 71 3 4.0999999999999998e-01 2.2695395789382680e+00 6.9420262797798884e+00 2.2147603733154487e+01 1 -2 0
3850 1284 3 4.0999999999999998e-01 9.7461114681335186e+00 7.3880111232891887e-01 2.5341247522098332e+01 1 -2 0
5249 1750 4 -8.1999999999999995e-01 3.9722011663616921e+00 2.5730608203641396e+00 2.2500588789651573e+01 0 3 2
2216 739 4 -8.1999999999999995e-01 6.1097494857855947e+00 7.7624386462425914e+00 2.2055801585188163e+01 0 0 1
2396 799 4 -8.1999999999999995e-01 8.4085174150395403e+00 8.8945494851126821e+00 2.8143732384360934e+01 -1 1 -5
520 174 3 4.0999999999999998e-01 5.6555806852496477e+00 6.4374678930006430e+00 2.5050114904391577e+01 2 4 -1
602 201 4 -8.1999999999999995e-01 1.6560704483843911e+00 3.4010032909547000e-01 2.5207668639518545e+01 -1 -2 0
7037 2346 4 -8.1999999999999995e-01 7.6970318826910695e+00 3.9885207417380726e+00 2.9340445140255710e+01 0 -1 2
2191 731 3 4.0999999999999998e-01 1.0213325360598196e+01 5.8805249761341836e+00 2.4363586663789881e+01 4 -2 -3
5818 1940 3 4.0999999999999998e-01 5.9493226124919838e+00 4.1458702558844918e+00 2.9132064395815803e+01 -2 3 2
3990 1330 3 4.0999999999999998e-01 1.1639120295601981e+00 6.5329557751424900e+00 2.5918468212812737e+01 0 1 -1
2399 800 4 -8.1999999999999995e-01 2.7390183084716879e+00 3.0236177829634197e+00 2.4764098375939042e+01 2 2 0
5925 1975 3 4.0999999999999998e-01 6.8231187465543730e+00 5.3919180652872722e-01 2.7893060015271608e+01 -1 -4 -3
4623 1541 3 4.0999999999999998e-01 4.0301165214567769e+00 4.7543252297901581e+00 2.5237370717665048e+01 -2 -4 0
5198 1733 4 -8.1999999999999995e-01 1.1011579483297238e+00 6.4630543349694269e-01 2.8993546290585854e+01 0 2 1
2466 822 3 4.0999999999999998e-01 8.7237644391600746e+00 1.5417172493091382e+00 2.2269700140248364e+01 -1 2 -6
5782 1928 3 4.0999999999999998e-01 7.9137566839942659e+00 9.4773085939700774e+00 3.1323661559772692e+01 -4 -1 -2
1031 344 4 -8.1999999999999995e-01 7.6692558630072964e+00 6.2746554606498064e+00 3.1265945269979067e+01 -1 -1 0
3302 1101 4 -8.1999999999999995e-01 4.5695483234889176e+00 2.4097453548222871e+00 2.6826745412442552e+01 1 -3 0
2039 680 4 -8.1999999999999995e-01 7.7233688344837956e+00 4.7998061741361688e+00 2.3876625278871256e+01 0 -1 -1
348 116 3 4.0999999999999998e-01 6.2570702579134228e+00 7.9141572138090888e-01 2.3208567989248252e+01 0 -2 -3
1978 660 3 4.0999999999999998e-01 5.0134519126388826e+00 8.4624809095464215e+00 2.8893638735737166e+01 3 -2 0
694 232 3 4.0999999999999998e-01 1.1078660873577295e+00 4.8174316168281557e+00 2.9097140174145828e+01 -2 0 -1
2616 872 3 4.0999999999999998e-01 7.2184742847581180e+00 1.8140122358331208e+00 2.4297972330645056e+01 0 2 -1
3303 1101 3 4.0999999999999998e-01 5.3288866408737476e+00 2.4602831970918362e+00 2.6177275878915793e+01 1 -3 0
3097 1033 3 4.0999999999999998e-01 7.7243009396914575e+00 4.0297178111989584e+00 2.2208348919779887e+01 0 -1 0
1781 594 4 -8.1999999999999995e-01 9.0787823610441123e+00 7.6611837892036228e+00 2.4543419529824867e+01 -1 -1 4
2038 680 3 4.0999999999999998e-01 7.2832564971624558e+00 5.6121270567734092e+00 2.4289666243235022e+01 0 -1 -1
3354 1118 3 4.0999999999999998e-01 4.4383787752675792e+00 5.9249271782096464e+00 2.8868944151935853e+01 -5 -3 0
7038 2346 3 4.0999999999999998e-01 7.9471728920031000e+00 4.7945529085499885e+00 2.8718428947591569e+01 0 -1 2
2614 872 3 4.0999999999999998e-01 6.9380166189628909e+00 3.3886243274003411e+00 2.4774223516055777e+01 0 2 -1
1137 379 3 4.0999999999999998e-01 5.4578034750969922e+00 9.4072715861101077e+00 2.2064154876517836e+01 0 4 -1
212 71 4 -8.1999999999999995e-01 2.4060956650578760e+00 7.0859023141525261e+00 2.3160271189012430e+01 1 -2 0
5819 1940 4 -8.1999999999999995e-01 4.9684778652113550e+00 4.1810635896347872e+00 2.8733836456557331e+01 -2 3 2
6651 2217 3 4.0999999999999998e-01 3.2560009845041584e+00 7.2966600292673869e+00 3.0312110080653458e+01 -1 2 -2
7036 2346 3 4.0999999999999998e-01 8.4106110850197435e+00 3.3689046945550811e+00 2.9009140348712570e+01 0 -1 2
2040 680 3 4.0999999999999998e-01 8.6802793509688971e+00 4.8993713570759736e+00 2.4246403683141352e+01 0 -1 -1
1136 379 4 -8.1999999999999995e-01 5.0669351757697569e+00 1.0319446782928733e+01 2.2336139072675795e+01 0 4 -1
5932 1978 3 4.0999999999999998e-01 7.4502239997810049e+00 6.1160624827948427e+00 2.6814484936010743e+01 2 -1 0
1366 456 3 4.0999999999999998e-01 1.8610404798159050e+00 3.0947226835478063e+00 3.0889236339908457e+01 -2 -1 -3
1979 660 4 -8.1999999999999995e-01 5.5085273888552697e+00 9.3465599882174590e+00 2.8784705477352645e+01 3 -2 0
3516 1172 3 4.0999999999999998e-01 7.3329766896391690e-01 2.4863009712481863e+00 2.7933403314174964e+01 1 -1 4