LAMMPS data file via write_data, version 5 Jun 2019, timestep = 2000000

7349 atoms
5 atom types
4899 bonds
2 bond types
2451 angles
2 angle types
1 impropers
1 improper types

1.5519297081455363e-01 4.1845807029189409e+01 xlo xhi
1.5469297081455124e-01 4.1845307029189406e+01 ylo yhi
1.5469297081455124e-01 4.1845307029189406e+01 zlo zhi

#Masses
#
#1 12.01
#2 40.08
#3 1.01
#4 16
#5 16
#
#Bond Coeffs # harmonic
#
#1 20.4246 1.3042
#2 22.965 1.012

Atoms # full

2022 674 3 4.0999999999999998e-01 2.5123575564435301e+00 9.9233937180804279e+00 9.2249261120673438e+00 1 1 1
207 69 3 4.0999999999999998e-01 7.3566396159456326e+00 4.7858208923664529e+00 2.7958022106755491e+00 2 1 2
937 313 3 4.0999999999999998e-01 7.0874952772268465e+00 5.9963812409547375e+00 7.1213322734161757e+00 -1 2 1
677 226 4 -8.1999999999999995e-01 8.9993661158514371e+00 8.4709904169972337e+00 7.2362021383322279e+00 1 1 1
5307 1769 3 4.0999999999999998e-01 4.9420779701683335e+00 1.6344234209687649e+00 5.9608736186574136e+00 2 0 0
4819 1607 3 4.0999999999999998e-01 3.4388341120538137e+00 7.6740226064690074e+00 2.1027372320451318e-01 0 0 1
3852 1284 3 4.0999999999999998e-01 9.3775859006717468e+00 4.2454343874370775e+00 5.0282322044869527e+00 0 1 1
5424 1808 3 4.0999999999999998e-01 1.2726108814987833e+00 1.2382096430196985e+00 4.3141336104525383e+00 0 0 -1
1026 342 3 4.0999999999999998e-01 7.6697743964254306e+00 4.4911191327388833e+00 2.0616366266525757e-01 1 0 1
7011 2337 3 4.0999999999999998e-01 1.0065303258873522e+01 1.0450181434937984e+00 1.0082768353627360e+01 0 0 0
5887 1963 3 4.0999999999999998e-01 1.0309920670991003e+01 1.0269607700498222e+01 7.2269174404043368e-01 2 -1 0
6923 2308 4 -8.1999999999999995e-01 1.6963134407366010e+00 1.1319436654552881e+00 1.3831199170086077e+00 0 0 1
6928 2310 3 4.0999999999999998e-01 6.3627857012197317e+00 1.6870329230631875e+00 4.5510189055591361e+00 1 1 2
6066 2022 3 4.0999999999999998e-01 4.4893693449131709e+00 8.1217975565565883e+00 3.9977206654613249e+00 2 0 1
5759 1920 4 -8.1999999999999995e-01 6.5685018370805324e+00 2.2563926046020466e+00 9.9965716978838259e-01 1 0 0
5423 1808 4 -8.1999999999999995e-01 2.1526876601309359e+00 1.7326127710419610e+00 4.0519056961877631e+00 0 0 -1
5144 1715 4 -8.1999999999999995e-01 7.0615114031743103e+00 9.1788922646063522e+00 1.0054644516965341e+01 1 -2 1
4777 1593 3 4.0999999999999998e-01 1.0461214118792668e+01 5.3726086457502831e+00 2.9901770140660560e+00 -1 -1 -1
4821 1607 3 4.0999999999999998e-01 3.7801771949019627e+00 6.4624574962607486e+00 1.1631079409096512e+00 0 0 1
1027 343 3 4.0999999999999998e-01 3.3246162118631832e+00 4.4714710794225470e+00 1.0348995240637915e+01 -1 1 1
6924 2308 3 4.0999999999999998e-01 1.5771967735473240e+00 1.4148205749354861e+00 2.3836216943246842e+00 0 0 1
4255 1419 3 4.0999999999999998e-01 8.0363005842420199e-01 8.9070398940876867e+00 7.2307569054011438e+00 0 0 0
5306 1769 4 -8.1999999999999995e-01 4.0294923300360388e+00 1.0945583893835336e+00 5.7574266161523990e+00 2 0 0
5354 1785 4 -8.1999999999999995e-01 1.9668171726590324e+00 4.2109524078345872e-01 7.8196364040303568e+00 1 1 0
2795 932 4 -8.1999999999999995e-01 9.4264843069055115e-01 8.5452576041475066e+00 2.2462699063536888e+00 -1 0 1
4292 1431 4 -8.1999999999999995e-01 2.9461966484854059e+00 4.7971479106322805e+00 1.0338372598984051e+00 1 -1 2
1673 558 4 -8.1999999999999995e-01 3.3047546489862962e+00 1.0488733824848719e+01 5.3239305792091258e+00 0 0 2
4522 1508 3 4.0999999999999998e-01 7.8823219597639378e+00 9.5058092945032246e+00 3.6841143934097094e+00 2 1 1
1823 608 4 -8.1999999999999995e-01 9.1725643514839081e+00 7.4353362797111728e+00 8.2327500885225757e-01 0 0 2
5788 1930 3 4.0999999999999998e-01 2.2636222916696722e+00 8.0149409890365568e+00 7.8801238826490279e+00 -1 1 2
5803 1935 3 4.0999999999999998e-01 4.9947236744674077e+00 2.6182224164084871e+00 3.3015215583403434e+00 0 0 1
3155 1052 4 -8.1999999999999995e-01 9.2132054835108992e+00 3.3777799509308135e+00 6.7285782496481774e+00 -1 1 -2
441 147 3 4.0999999999999998e-01 7.6483712031024291e+00 5.2111327871430619e+00 8.9473189785643719e+00 1 1 1
6930 2310 3 4.0999999999999998e-01 6.7890249126218949e+00 5.8869848555174764e-01 3.4709632425255466e+00 1 1 2
5353 1785 3 4.0999999999999998e-01 1.8255153431362614e+00 1.4085145775429004e+00 7.9816325480564352e+00 1 1 0
205 69 3 4.0999999999999998e-01 5.7738997255309821e+00 4.1234856511930857e+00 2.8400656145864960e+00 2 1 2
2020 674 3 4.0999999999999998e-01 2.5096884448920873e+00 1.0301814684594229e+01 7.6133832120777498e+00 1 1 1
676 226 3 4.0999999999999998e-01 9.3170340115574000e+00 9.0421652308531346e+00 6.4282212077883853e+00 1 1 1
2959 987 3 4.0999999999999998e-01 6.1457009989454852e+00 7.7143914245123693e+00 7.9238637533450396e+00 0 0 1
678 226 3 4.0999999999999998e-01 9.2488832581920253e+00 8.8087725147041134e+00 8.1822233309313557e+00 1 1 1
3156 1052 3 4.0999999999999998e-01 9.8185690770132492e+00 2.5528949430475820e+00 6.8942346745004821e+00 -1 1 -2
1672 558 3 4.0999999999999998e-01 3.2186720751921052e+00 1.0242908807559218e+01 4.3565437472364010e+00 0 0 2
2021 674 4 -8.1999999999999995e-01 2.1612517864142706e+00 9.6113429609834427e+00 8.3097800566006121e+00 1 1 1
5804 1935 4 -8.1999999999999995e-01 4.2366115013656138e+00 3.2116750297817815e+00 2.9147776742635036e+00 0 0 1
440 147 4 -8.1999999999999995e-01 8.0981481500896546e+00 4.3458885419136370e+00 9.3739417461433199e+00 1 1 1
2925 975 3 4.0999999999999998e-01 5.1297348998919379e+00 1.0115897633236795e+01 5.7408457098367229e+00 1 0 0
938 313 4 -8.1999999999999995e-01 7.2845845293845972e+00 6.4436560888708554e+00 7.9968809488575419e+00 -1 2 1
4293 1431 3 4.0999999999999998e-01 2.3107866475233219e+00 5.1705131476238551e+00 1.8261655933528578e+00 1 -1 2
3154 1052 3 4.0999999999999998e-01 8.8927713757523748e+00 3.8527721905030488e+00 7.5583472936398195e+00 -1 1 -2
4523 1508 4 -8.1999999999999995e-01 7.6401366990827579e+00 9.0791685081830149e+00 2.7290328436550286e+00 2 1 1
5145 1715 3 4.0999999999999998e-01 7.2283894140492553e+00 1.0015600016928401e+01 9.5358286175790798e+00 1 -2 1
5790 1930 3 4.0999999999999998e-01 3.7703493175394667e+00 7.4056791847158179e+00 7.8243458665960928e+00 -1 1 2
4153 1385 3 4.0999999999999998e-01 1.9775980939858246e+00 2.9802397454785536e+00 9.7311410013413777e+00 2 0 -1
939 313 3 4.0999999999999998e-01 7.8814417410793363e+00 7.2217023986069995e+00 7.6636097977073909e+00 -1 2 1
3751 1251 3 4.0999999999999998e-01 1.1914023960243001e+00 4.4180692441380041e+00 8.0612169766234807e+00 2 1 1
3804 1268 3 4.0999999999999998e-01 6.2099352845349642e+00 3.2593604637241369e+00 6.3711400819597026e+00 1 2 1
2924 975 4 -8.1999999999999995e-01 6.0109506437787861e+00 1.0235074216359489e+01 6.2884091301464036e+00 1 0 0
3752 1251 4 -8.1999999999999995e-01 1.0857490866288475e+00 4.9579295916598047e+00 7.2130431112772859e+00 2 1 1
4779 1593 3 4.0999999999999998e-01 1.0036056926815888e+01 6.3210715566229485e+00 1.6728769401152888e+00 -1 -1 -1
5704 1902 3 4.0999999999999998e-01 3.1249079975570515e+00 7.0283136797120633e+00 9.8594480736787364e+00 1 1 1
5760 1920 3 4.0999999999999998e-01 6.2378857940550541e+00 2.0369754079856364e+00 1.9534335328008674e+00 1 0 0
1024 342 3 4.0999999999999998e-01 8.0949564502035756e+00 6.0524833248954257e+00 3.1139810379404625e-01 1 0 1
3315 1105 3 4.0999999999999998e-01 1.3494760826393137e+00 6.7962830377070675e+00 3.0310377219901605e+00 0 -1 0
5355 1785 3 4.0999999999999998e-01 2.7606392727086537e+00 4.9934481021537469e-01 7.1426965660036590e+00 1 1 0
4897 1633 3 4.0999999999999998e-01 9.4324398321142233e+00 4.7700742979657633e+00 1.0517771824866335e+01 0 1 0
3802 1268 3 4.0999999999999998e-01 7.5447661819778880e+00 2.2782739395623812e+00 6.5576849717077828e+00 1 2 1
3753 1251 3 4.0999999999999998e-01 1.9522868894685601e+00 5.5650209203446890e+00 7.3435552060463793e+00 2 1 1
6298 2100 3 4.0999999999999998e-01 1.0350452035625906e+01 8.3543350215643386e+00 1.0259616327669001e+01 0 -2 1
3313 1105 3 4.0999999999999998e-01 8.9970129357990503e-01 5.3778925267153692e+00 3.8075732686681629e+00 0 -1 0
2960 987 4 -8.1999999999999995e-01 5.2732248074346195e+00 8.2443401222893140e+00 7.9018900025595462e+00 0 0 1
2696 899 4 -8.1999999999999995e-01 3.5134620734353779e+00 6.6736999799372674e+00 4.9522397680610002e+00 0 0 0
4696 1566 3 4.0999999999999998e-01 3.4559889317013850e+00 1.3385661660059980e+00 6.1767264351394957e-01 1 0 1
5032 1678 3 4.0999999999999998e-01 8.1110776428415292e+00 1.0202486607585891e+01 5.9870597554276026e+00 1 0 1
5161 1721 3 4.0999999999999998e-01 8.1694458694049530e+00 1.4608794647414498e+00 4.5313205033220977e-01 0 1 1
4155 1385 3 4.0999999999999998e-01 2.1778545676354066e-01 2.8751019162595441e+00 9.3516668393818794e+00 2 0 -1
4154 1385 4 -8.1999999999999995e-01 1.2019348639142227e+00 2.9770921835006332e+00 9.0442186014276658e+00 2 0 -1
5789 1930 4 -8.1999999999999995e-01 2.7854399051597247e+00 7.1394956433200640e+00 7.7180510781801059e+00 -1 1 2
5422 1808 3 4.0999999999999998e-01 2.8682334071154094e+00 1.6133311994433419e+00 4.7941822563555716e+00 0 0 -1
651 217 3 4.0999999999999998e-01 6.3449762995695851e+00 5.0319119527675706e+00 4.9029084302820065e+00 0 -2 -1
439 147 3 4.0999999999999998e-01 7.4851873799754838e+00 3.9481914874511781e+00 1.0066569293552341e+01 1 1 1
1822 608 3 4.0999999999999998e-01 8.6101719239997259e+00 8.0024116060285806e+00 1.4445240085622231e+00 0 0 2
3314 1105 4 -8.1999999999999995e-01 1.6194098869862539e+00 5.8231867021928130e+00 3.1648203090913340e+00 0 -1 0
6064 2022 3 4.0999999999999998e-01 4.3789690962410068e+00 8.2612729093005637e+00 2.3768909220639673e+00 2 0 1
2695 899 3 4.0999999999999998e-01 2.9354575052854872e+00 6.1146135303477216e+00 4.3027298416495272e+00 0 0 0
6065 2022 4 -8.1999999999999995e-01 4.7437141237373961e+00 8.7463963373970053e+00 3.2413295524131103e+00 2 0 1
2961 987 3 4.0999999999999998e-01 5.4689661941621734e+00 9.0873868246023228e+00 7.3683449378459844e+00 0 0 1
1025 342 4 -8.1999999999999995e-01 7.2875902420843834e+00 5.4332172119972535e+00 1.7868107697421959e-01 1 0 1
6929 2310 4 -8.1999999999999995e-01 6.1415486776986761e+00 1.4170667369753940e+00 3.5934445488331392e+00 1 1 2
4820 1607 4 -8.1999999999999995e-01 3.9685527997063095e+00 7.3973054668281035e+00 1.0795021688723163e+00 0 0 1
4840 1614 3 4.0999999999999998e-01 6.1686363294183586e+00 2.1332535104206912e-01 9.4478138426343801e+00 1 0 1
4524 1508 3 4.0999999999999998e-01 6.6486760564556029e+00 8.7503193329919995e+00 2.7999032467616960e+00 2 1 1
2869 957 3 4.0999999999999998e-01 9.7098295470713776e+00 5.2127984686750617e-01 6.9446194289143213e+00 1 -1 -1
649 217 3 4.0999999999999998e-01 5.2111471306222912e+00 5.8074298914399840e+00 5.9659449923974313e+00 0 -2 -1
5758 1920 3 4.0999999999999998e-01 5.7260852673149092e+00 1.9462224426015653e+00 4.1904766983587033e-01 1 0 0
2697 899 3 4.0999999999999998e-01 3.0526429635588084e+00 6.7062305083145857e+00 5.8532346632325476e+00 0 0 0
650 217 4 -8.1999999999999995e-01 6.1373850406213002e+00 5.3277710137789933e+00 5.8939558248783488e+00 0 -2 -1
2796 932 3 4.0999999999999998e-01 1.3801951825691456e+00 9.4815619325908056e+00 2.1110141157001339e+00 -1 0 1
206 69 4 -8.1999999999999995e-01 6.5412734835479878e+00 4.5596088155499617e+00 3.3810910719620177e+00 2 1 2
6922 2308 3 4.0999999999999998e-01 9.8620881961523987e-01 1.7230960304573983e+00 8.8551609585927171e-01 0 0 1
3803 1268 4 -8.1999999999999995e-01 6.4916029578715939e+00 2.3062326759327743e+00 6.3617103477334336e+00 1 2 1
5805 1935 3 4.0999999999999998e-01 3.4352162012324539e+00 2.8353148438824491e+00 3.3965784846939928e+00 0 0 1
3851 1284 4 -8.1999999999999995e-01 9.8717297160268185e+00 4.4632941824988466e+00 4.1974473761955595e+00 0 1 1
5143 1715 3 4.0999999999999998e-01 6.3019325092235858e+00 8.7365866092697040e+00 9.5915254909103176e+00 1 -2 1
4291 1431 3 4.0999999999999998e-01 3.5471349069968703e+00 4.1031629695486336e+00 1.5156294893880746e+00 1 -1 2
403 135 3 4.0999999999999998e-01 3.9774440624774343e-01 4.7024862946200647e+00 5.8438491633719805e+00 1 0 0
2794 932 3 4.0999999999999998e-01 5.8984726097451290e-01 8.0569826662864141e+00 1.4406491117597104e+00 -1 0 1
5739 1913 3 4.0999999999999998e-01 5.1126094630089813e+00 1.0513959660323749e+01 2.2125406624812789e+00 1 -1 1
4399 1467 3 4.0999999999999998e-01 3.5323108382751073e-01 5.9207791015178080e+00 1.0546141126897099e+01 1 -2 1
1824 608 3 4.0999999999999998e-01 9.8019375675097606e+00 8.0212970935158125e+00 2.4881218253903375e-01 0 0 2
1651 551 3 4.0999999999999998e-01 1.0408317358045363e+01 1.0561014638270906e+01 4.5803793673939728e+00 2 2 1
5705 1902 4 -8.1999999999999995e-01 3.5370953681721335e+00 6.3433142747537063e+00 1.0569982231765408e+01 1 1 1
7161 2387 3 4.0999999999999998e-01 1.0400691788141955e+01 5.8728329347849009e+00 1.4436876514361112e+01 1 0 -1
1938 646 3 4.0999999999999998e-01 5.2063425859454426e+00 1.0857634155470695e+00 1.6654117057033464e+01 0 0 0
4129 1377 3 4.0999999999999998e-01 1.4811576666284840e+00 1.3370513303864533e+00 1.6595239301828354e+01 0 0 2
5723 1908 4 -8.1999999999999995e-01 9.2002302969838681e+00 2.6947281288346345e+00 2.0218200646735102e+01 0 -1 0
628 210 3 4.0999999999999998e-01 5.7283824429461427e+00 9.1899270644429691e+00 1.6197281338314362e+01 1 -3 0
1404 468 3 4.0999999999999998e-01 5.7267305874258465e+00 4.3379013108305603e-01 1.1908922115786591e+01 1 1 -1
4130 1377 4 -8.1999999999999995e-01 1.0016845914424528e+00 4.4245373291238854e-01 1.6379632701564990e+01 0 0 2
5724 1908 3 4.0999999999999998e-01 9.1524810552105595e+00 2.9267010022230484e+00 1.9204871037290044e+01 0 -1 0
1495 499 3 4.0999999999999998e-01 6.0622135942709052e+00 6.6165635426818836e+00 1.5103809645296618e+01 -1 0 1
6995 2332 4 -8.1999999999999995e-01 2.0089962585188195e+00 9.8760819425881614e+00 1.4291787543507979e+01 2 2 0
1227 409 3 4.0999999999999998e-01 6.0765717491490028e+00 6.4508612947795321e+00 1.2996766123674290e+01 1 1 0
1496 499 4 -8.1999999999999995e-01 5.3226079191085613e+00 6.5920060897936894e+00 1.4400614822150622e+01 -1 0 1
6525 2175 3 4.0999999999999998e-01 5.6218084453867441e+00 1.8654467631512612e+00 2.0689414211962017e+01 2 0 -1
3430 1144 3 4.0999999999999998e-01 9.2455482732527923e+00 9.4030787297410132e+00 1.4129209443441793e+01 -2 1 1
3750 1250 3 4.0999999999999998e-01 6.4534392354963446e+00 3.6463901999434922e+00 1.9349950870391883e+01 1 0 0
2100 700 3 4.0999999999999998e-01 9.0530899508219544e+00 1.8080262471374018e+00 1.1697496403328662e+01 0 0 -1
2045 682 4 -8.1999999999999995e-01 7.5271790640885214e+00 5.8441952075151891e+00 1.5951248888990616e+01 -1 1 -3
5761 1921 3 4.0999999999999998e-01 8.1856868302196375e+00 6.9367110787029995e+00 1.9025026250457351e+01 0 0 -1
585 195 3 4.0999999999999998e-01 1.1632621929244080e+00 4.7814749917449593e+00 1.9702344455678414e+01 1 -1 1
584 195 4 -8.1999999999999995e-01 7.2084634725689933e-01 5.6944312218557087e+00 1.9545853091715689e+01 1 -1 1
256 86 3 4.0999999999999998e-01 7.0292788794868866e+00 9.1062237841247278e+00 2.0869617017766849e+01 -1 0 0
1222 408 3 4.0999999999999998e-01 3.4239631706103490e+00 9.1719103162827711e+00 1.3540196586581043e+01 -1 1 0
1902 634 3 4.0999999999999998e-01 3.1456622701045798e+00 3.5278607675301101e+00 1.3958888292822234e+01 1 0 0
3316 1106 3 4.0999999999999998e-01 6.2906924740334151e+00 4.5474324776876331e+00 1.1419756121507048e+01 -1 2 2
6450 2150 3 4.0999999999999998e-01 1.8038236518950965e+00 5.2214479981206718e+00 1.2796080284456675e+01 0 0 1
1389 463 3 4.0999999999999998e-01 3.4156823671163603e+00 5.8605834032961894e+00 1.9231565078594009e+01 -1 0 1
2150 717 4 -8.1999999999999995e-01 2.7271096542653654e+00 2.6585164956522904e+00 1.7569235590845228e+01 0 1 0
6448 2150 3 4.0999999999999998e-01 2.2550576284664334e+00 6.4175418004374993e+00 1.1880142958390270e+01 0 0 1
1388 463 4 -8.1999999999999995e-01 3.4287438036709745e+00 5.1120462380902456e+00 1.8528169082350168e+01 -1 0 1
2657 886 4 -8.1999999999999995e-01 3.2181829065798748e+00 6.1192998880830167e+00 1.5964106104448410e+01 4 0 1
2044 682 3 4.0999999999999998e-01 8.4277638446668277e+00 6.1440920623283342e+00 1.5547218929873159e+01 -1 1 -3
1387 463 3 4.0999999999999998e-01 4.3653324155035298e+00 5.0279707103762528e+00 1.8095641604074231e+01 -1 0 1
1901 634 4 -8.1999999999999995e-01 2.5166206681699608e+00 3.8266760548294552e+00 1.3183482928560979e+01 1 0 0
1936 646 3 4.0999999999999998e-01 4.9389128430627860e+00 1.6571049470982524e+00 1.5050446331637275e+01 0 0 0
629 210 4 -8.1999999999999995e-01 6.5893361948286202e+00 9.0580320851869160e+00 1.5606912369540948e+01 1 -3 0
3344 1115 4 -8.1999999999999995e-01 9.2646057919655078e+00 2.0516664942123701e+00 1.5283633572132237e+01 3 1 -2
5136 1712 3 4.0999999999999998e-01 3.1488558495511203e+00 9.4085060475048312e+00 1.7283190400395611e+01 1 1 1
1149 383 3 4.0999999999999998e-01 3.6983016642945206e+00 3.2408734042647431e+00 1.6196574428701084e+01 1 1 2
1147 383 3 4.0999999999999998e-01 3.9179774588305412e+00 4.6634378879662322e+00 1.5392246727683922e+01 1 1 2
3579 1193 3 4.0999999999999998e-01 1.4489694671720392e+00 8.4575685470708883e+00 1.8564093279310015e+01 0 0 1
1154 385 4 -8.1999999999999995e-01 6.0258796659122744e+00 4.6576285104620441e+00 1.7734118551314545e+01 0 0 0
6869 2290 4 -8.1999999999999995e-01 9.5696892921608843e+00 9.9211217666374569e+00 1.8249662638076405e+01 -1 1 0
6996 2332 3 4.0999999999999998e-01 1.1167845640335590e+00 9.4005492631411123e+00 1.4042664955304810e+01 2 2 0
5784 1928 3 4.0999999999999998e-01 9.7703565942915596e+00 8.5499110391992694e+00 1.7712172208634428e+01 1 2 1
2992 998 3 4.0999999999999998e-01 8.8624289473362303e+00 8.2405889554823357e+00 1.2114719470929177e+01 2 1 1
4517 1506 4 -8.1999999999999995e-01 1.8523548051158828e-01 6.3644617696355450e+00 1.6356667913162763e+01 1 1 1
6449 2150 4 -8.1999999999999995e-01 1.4810167545665018e+00 6.1373671679034789e+00 1.2406964281815254e+01 0 0 1
539 180 4 -8.1999999999999995e-01 5.4080806787333726e+00 1.0569691271083672e+01 1.1856435307573022e+01 1 -1 1
4810 1604 3 4.0999999999999998e-01 1.5567340241104737e+00 1.0274516069345720e+01 1.0706612780589754e+01 1 0 -1
3578 1193 4 -8.1999999999999995e-01 2.5327563525901011e+00 8.5459783878631423e+00 1.8491823482627243e+01 0 0 1
817 273 3 4.0999999999999998e-01 6.5055325282529453e-01 7.6270455132940018e+00 1.2943566027952766e+01 -1 -1 0
2149 717 3 4.0999999999999998e-01 2.6711565533146482e+00 3.4057869660486997e+00 1.8243532360765919e+01 0 1 0
5783 1928 4 -8.1999999999999995e-01 9.7547166204681375e+00 7.5357362052143371e+00 1.7312272746199746e+01 1 2 1
3577 1193 3 4.0999999999999998e-01 2.7813915452118008e+00 8.0544563106968567e+00 1.9361260197426628e+01 0 0 1
1153 385 3 4.0999999999999998e-01 6.5458850107349420e+00 5.4655199013842113e+00 1.8111258339365193e+01 0 0 0
4737 1579 3 4.0999999999999998e-01 9.8868887453346748e+00 3.8940987988911950e+00 1.2319058663899643e+01 0 -1 -1
2709 903 3 4.0999999999999998e-01 8.1650098613002449e+00 4.1546556788866980e+00 1.7200749028940120e+01 1 2 1
1402 468 3 4.0999999999999998e-01 5.6694801157939247e+00 1.8440505088870207e+00 1.1082055128048125e+01 1 1 -1
5722 1908 3 4.0999999999999998e-01 9.9430477353583999e+00 2.0575727128118286e+00 2.0535487638978523e+01 0 -1 0
1028 343 4 -8.1999999999999995e-01 3.2081345746438372e+00 3.4783633531042581e+00 1.0705584672444962e+01 -1 1 1
2658 886 3 4.0999999999999998e-01 3.3552113220117419e+00 6.1483102721531759e+00 1.6947402192111198e+01 4 0 1
4736 1579 4 -8.1999999999999995e-01 9.8587874929802162e+00 2.9065698093156183e+00 1.2651409111021840e+01 0 -1 -1
3343 1115 3 4.0999999999999998e-01 9.0379506751967771e+00 1.0328453835758737e+00 1.5287559401297216e+01 3 1 -2
5135 1712 4 -8.1999999999999995e-01 3.6085906135774874e+00 9.7141003617839026e+00 1.6382509618059068e+01 1 1 1
6868 2290 3 4.0999999999999998e-01 9.1282889399198979e+00 9.7023822705963738e+00 1.9135786348398110e+01 -1 1 0
1497 499 3 4.0999999999999998e-01 4.4747983523069159e+00 6.5375845585609289e+00 1.4993874093452794e+01 -1 0 1
2046 682 3 4.0999999999999998e-01 7.2793571815261231e+00 6.5035575009790509e+00 1.6642316783848333e+01 -1 1 -3
5171 1724 4 -8.1999999999999995e-01 3.6727007275904094e-01 1.0130831046825335e+01 2.0602857052766648e+01 0 0 -1
2707 903 3 4.0999999999999998e-01 9.1086175196153274e+00 3.0972691309822724e+00 1.6486123490789709e+01 1 2 1
538 180 3 4.0999999999999998e-01 6.3034597930915055e+00 1.0352135947290755e+01 1.1500231459133429e+01 1 -1 1
1225 409 3 4.0999999999999998e-01 7.3378886742397498e+00 6.4459494165635105e+00 1.1930392741528470e+01 1 1 0
1900 634 3 4.0999999999999998e-01 1.6538991480029808e+00 3.3054299913988756e+00 1.3333320841540139e+01 1 0 0
1223 408 4 -8.1999999999999995e-01 4.1156970444304237e+00 8.6936419428454794e+00 1.2990288281802112e+01 -1 1 0
5134 1712 3 4.0999999999999998e-01 2.9906154863407419e+00 9.5026195753359310e+00 1.5599385912579010e+01 1 1 1
3431 1144 4 -8.1999999999999995e-01 8.4650016602083173e+00 8.8815515207298912e+00 1.3764007078797446e+01 -2 1 1
1148 383 4 -8.1999999999999995e-01 4.2358102743842005e+00 3.6649435938761203e+00 1.5418923181254097e+01 1 1 2
540 180 3 4.0999999999999998e-01 5.1330293304780188e+00 9.7085294147847314e+00 1.2408780720834155e+01 1 -1 1
1224 408 3 4.0999999999999998e-01 4.5078312558099691e+00 7.9542164510237736e+00 1.3533235042743060e+01 -1 1 0
4898 1633 4 -8.1999999999999995e-01 1.0114016508214942e+01 5.2070194987186218e+00 1.1145410323626342e+01 0 1 0
5762 1921 4 -8.1999999999999995e-01 7.2401966967349995e+00 6.8674894246531020e+00 1.8670943210749741e+01 0 0 -1
5782 1928 3 4.0999999999999998e-01 9.6231815767096087e+00 7.5576660580851494e+00 1.6272236176745565e+01 1 2 1
1937 646 4 -8.1999999999999995e-01 5.0094141627604891e+00 8.3559353885615062e-01 1.5685510491293680e+01 0 0 0
6349 2117 3 4.0999999999999998e-01 2.8208115688050843e+00 3.8003744778608382e+00 2.0690845076084507e+01 0 -1 0
7159 2387 3 4.0999999999999998e-01 9.4441658397571828e+00 7.2740613896538102e+00 1.4035461651919235e+01 1 0 -1
3829 1277 3 4.0999999999999998e-01 1.0123460167264831e+01 4.6332408246201009e+00 1.8264685898354816e+01 0 1 -1
2151 717 3 4.0999999999999998e-01 3.5110713811530814e+00 2.0945672642156872e+00 1.7833850258716275e+01 0 1 0
7160 2387 4 -8.1999999999999995e-01 9.8624655521956850e+00 6.6804562335068391e+00 1.4783333460383108e+01 1 0 -1
4735 1579 3 4.0999999999999998e-01 9.3948053248029435e+00 2.7833539380144887e+00 1.3504155876761772e+01 0 -1 -1
2708 903 4 -8.1999999999999995e-01 9.0185594263300235e+00 3.6392612315953556e+00 1.7347677918077988e+01 1 2 1
1226 409 4 -8.1999999999999995e-01 6.4114320987771825e+00 6.0502855491204510e+00 1.2119898870932909e+01 1 1 0
5763 1921 3 4.0999999999999998e-01 6.7660474011878522e+00 7.5808670807401413e+00 1.9225981332748336e+01 0 0 -1
3432 1144 3 4.0999999999999998e-01 7.6998968295087948e+00 8.9561027318643447e+00 1.4480947814898981e+01 -2 1 1
2656 886 3 4.0999999999999998e-01 2.2604464462446092e+00 6.2893664125796471e+00 1.5719633584644232e+01 4 0 1
943 315 3 4.0999999999999998e-01 3.1940977774936563e-01 2.0419276628853691e+00 1.2609864445669647e+01 0 0 1
2993 998 4 -8.1999999999999995e-01 8.9994928106948802e+00 7.5607156711087482e+00 1.1328691999462995e+01 2 1 1
1155 385 3 4.0999999999999998e-01 6.0948102825081856e+00 4.7372794054195877e+00 1.6666220423677121e+01 0 0 0
6362 2121 4 -8.1999999999999995e-01 3.7058871332463492e+00 7.0047665142798472e+00 2.0589932859789794e+01 1 1 -2
1766 589 4 -8.1999999999999995e-01 2.1525559979185087e+00 1.7682210547861910e-01 1.9802699862852183e+01 0 0 -1
1029 343 3 4.0999999999999998e-01 3.0541803404115346e+00 3.4573765252675219e+00 1.1726479192783108e+01 -1 1 1
1076 359 4 -8.1999999999999995e-01 5.7317718327521989e+00 8.6342473605964543e+00 2.0069391680141077e+01 1 0 1
1767 589 3 4.0999999999999998e-01 1.8247381476174964e+00 3.5402873625317177e-01 2.0744064910960592e+01 0 0 -1
1403 468 4 -8.1999999999999995e-01 5.9122717246213750e+00 8.8754470697801080e-01 1.1016100427210787e+01 1 1 -1
4899 1633 3 4.0999999999999998e-01 9.8764870576965134e+00 6.2033776361080930e+00 1.1234048763102551e+01 0 1 0
1075 359 3 4.0999999999999998e-01 5.4105727383690105e+00 9.5273353001227434e+00 2.0456410404205361e+01 1 0 1
3317 1106 4 -8.1999999999999995e-01 5.9622641648614891e+00 3.5927530950735695e+00 1.1165308738950037e+01 -1 2 2
4142 1381 4 -8.1999999999999995e-01 4.8888991303418994e+00 5.6380029396014730e-01 1.8356633083171193e+01 0 2 -2
583 195 3 4.0999999999999998e-01 5.7074051817802562e-01 5.7497872026277559e+00 1.8566352055881840e+01 1 -1 1
1077 359 3 4.0999999999999998e-01 4.8628061616307567e+00 8.0804209189175289e+00 2.0128674586174320e+01 1 0 1
3749 1250 4 -8.1999999999999995e-01 6.4650256871203853e+00 3.3621712883804449e+00 2.0339972329000862e+01 1 0 0
3748 1250 3 4.0999999999999998e-01 7.3746176597879041e+00 2.9347571346562016e+00 2.0452618612132799e+01 1 0 0
5706 1902 3 4.0999999999999998e-01 4.3333512667868463e+00 6.7196152433511900e+00 1.1081525878317942e+01 1 1 1
4141 1381 3 4.0999999999999998e-01 5.6989290549265723e+00 1.5905811167385053e-01 1.8852541230786045e+01 0 2 -2
4518 1506 3 4.0999999999999998e-01 1.5808311331446137e-01 7.2813186699761907e+00 1.6896062593838916e+01 1 1 1
3318 1106 3 4.0999999999999998e-01 4.9412165442564016e+00 3.6598698846732072e+00 1.1035638211701631e+01 -1 2 2
6350 2117 4 -8.1999999999999995e-01 1.9702219796815632e+00 3.2926846802808449e+00 2.0482189370057267e+01 0 -1 0
630 210 3 4.0999999999999998e-01 7.1986111628076426e+00 9.8952300652750225e+00 1.5782981899123691e+01 1 -3 0
2099 700 4 -8.1999999999999995e-01 8.6904462494024113e+00 9.6641780709574787e-01 1.1164479774504271e+01 0 0 -1
4143 1381 3 4.0999999999999998e-01 3.9500327503071211e+00 3.1730095810778836e-01 1.8682697002520058e+01 0 2 -2
2098 700 3 4.0999999999999998e-01 7.6245912019193183e+00 9.8976655995394236e-01 1.1129931085804616e+01 0 0 -1
4811 1604 4 -8.1999999999999995e-01 5.7223934996024906e-01 1.0204712611631638e+01 1.0986403965012599e+01 1 0 -1
4340 1447 4 -8.1999999999999995e-01 3.2435850090734697e-01 2.1533496370630606e-01 1.1696632837683092e+01 1 0 0
3345 1115 3 4.0999999999999998e-01 1.0332257880237178e+01 2.0485879404926028e+00 1.5434195013064079e+01 3 1 -2
4098 1366 3 4.0999999999999998e-01 3.9511707081225533e+00 1.0380716369062567e+01 1.8714973438835099e+01 1 1 1
2994 998 3 4.0999999999999998e-01 8.2336308901315753e+00 7.6674038626296381e+00 1.0657549325786960e+01 2 1 1
1792 598 3 4.0999999999999998e-01 2.1315336066896151e-01 1.9448419273537230e+00 1.9325193422605949e+01 0 1 0
6707 2236 4 -8.1999999999999995e-01 7.0311421698885761e+00 6.5112503414666856e+00 2.6883255317743668e+01 1 0 0
6750 2250 3 4.0999999999999998e-01 6.3360947783292527e+00 1.1113350112453764e+00 2.6283063706353481e+01 3 -1 -1
6936 2312 3 4.0999999999999998e-01 7.8469942145840985e+00 4.0936662181343566e+00 2.5235114284260003e+01 2 0 1
2663 888 4 -8.1999999999999995e-01 6.1813207812790907e+00 1.7875289978126467e+00 2.9642328371645451e+01 1 0 1
5532 1844 3 4.0999999999999998e-01 9.4904350404700075e+00 4.2280182811933571e+00 2.7050794903120813e+01 -1 0 0
1585 529 3 4.0999999999999998e-01 2.2609030469769440e+00 5.7274234768394781e+00 2.5943500122606718e+01 0 0 0
227 76 4 -8.1999999999999995e-01 8.3285021492509959e+00 9.3319204854086699e+00 2.6647496043684129e+01 0 0 -1
6748 2250 3 4.0999999999999998e-01 4.9578426568800040e+00 1.8596641463289454e+00 2.6662354284929073e+01 3 -1 -1
2875 959 3 4.0999999999999998e-01 1.7132430310601046e-01 2.5425755526776850e-01 2.2637688876192858e+01 1 1 0
5531 1844 4 -8.1999999999999995e-01 1.0051434768500391e+01 4.0061162304817000e+00 2.7935672713741599e+01 -1 0 0
2355 785 3 4.0999999999999998e-01 6.3834905717315271e+00 3.3957082715038950e-01 3.0543569769096653e+01 1 -1 -1
7204 2402 3 4.0999999999999998e-01 8.9236732438870803e+00 6.3941245237510147e+00 2.2204905968149006e+01 -2 0 0
1398 466 3 4.0999999999999998e-01 4.1755580246115560e+00 2.6323796977075307e+00 2.4873735350360455e+01 -1 1 0
528 176 3 4.0999999999999998e-01 1.6835159576426668e+00 8.6759421188541772e+00 2.8852233601568770e+01 2 1 -1
5548 1850 3 4.0999999999999998e-01 2.3344548324391901e+00 9.4968190297531851e+00 2.6867955560880816e+01 0 0 -1
4668 1556 3 4.0999999999999998e-01 2.4999915538954030e+00 3.1906625301396137e+00 2.3248354447153204e+01 0 -1 0
4690 1564 3 4.0999999999999998e-01 7.7407748093552513e+00 2.5284161464407289e+00 2.4060087609607898e+01 1 1 0
6935 2312 4 -8.1999999999999995e-01 8.3918412047419011e+00 4.6908147912303777e+00 2.5893830936176492e+01 2 0 1
1874 625 4 -8.1999999999999995e-01 8.6647181003561897e+00 4.8670943053634632e+00 2.2300224055344259e+01 -1 1 -2
1873 625 3 4.0999999999999998e-01 8.5421838486636918e+00 3.9949319772404173e+00 2.2825884393418328e+01 -1 1 -2
6569 2190 4 -8.1999999999999995e-01 3.2597964788946472e+00 4.1927880560945168e+00 2.9851252512740412e+01 1 -1 0
6629 2210 4 -8.1999999999999995e-01 1.6846293548690334e+00 2.5126198917698130e+00 2.8401424653593896e+01 1 0 0
5110 1704 3 4.0999999999999998e-01 3.3750919713881018e+00 4.0973485375933070e+00 2.6192873571901803e+01 0 1 -1
1617 539 3 4.0999999999999998e-01 4.6116711791301643e+00 4.9836547141009380e+00 2.9172650478441209e+01 -1 1 0
527 176 4 -8.1999999999999995e-01 1.3700682673528650e+00 9.6041996654494266e+00 2.8597951386724205e+01 2 1 -1
258 86 3 4.0999999999999998e-01 8.3189257123900369e+00 8.9578203283297313e+00 2.1771017249810818e+01 -1 0 0
891 297 3 4.0999999999999998e-01 1.7091643107997649e+00 9.1374730745221502e+00 2.1786153258852480e+01 0 0 1
4682 1561 4 -8.1999999999999995e-01 7.4388386441409704e+00 4.5263406729397992e+00 3.1001357497670163e+01 1 0 0
4666 1556 3 4.0999999999999998e-01 1.3184371126275434e+00 3.9786931412353619e+00 2.3930156863345232e+01 0 -1 0
4776 1592 3 4.0999999999999998e-01 1.0274317504299970e+00 1.5365687527835321e+00 2.6165764831183079e+01 -2 1 1
6523 2175 3 4.0999999999999998e-01 5.1702105387977308e+00 1.4578914342587250e+00 2.2309699608282166e+01 2 0 -1