LAMMPS data file via write_data, version 5 Jun 2019, timestep = 11500000

7349 atoms
5 atom types
4899 bonds
2 bond types
2451 angles
2 angle types
1 impropers
1 improper types

1.5519297081455363e-01 4.1845807029189409e+01 xlo xhi
1.5469297081455124e-01 4.1845307029189406e+01 ylo yhi
1.5469297081455124e-01 4.1845307029189406e+01 zlo zhi

#Masses
#
#1 12.01
#2 40.08
#3 1.01
#4 16
#5 16
#
#Bond Coeffs # harmonic
#
#1 20.4246 1.3042
#2 22.965 1.012

Atoms # full

4802 1601 4 -8.1999999999999995e-01 9.4345051296419982e+00 9.7826966231763191e+00 5.8002574047465560e-01 -1 -1 -1
5201 1734 4 -8.1999999999999995e-01 3.2669901477112759e+00 7.7989887797449899e+00 2.0760052035592365e+00 -1 3 0
6070 2024 3 4.0999999999999998e-01 4.2336683351581756e+00 8.5645718416911070e+00 7.9704635849381789e-01 -1 1 -5
5819 1940 4 -8.1999999999999995e-01 7.6652070035226458e+00 1.4940408126006965e+00 2.3954850939455871e-01 1 -1 2
3066 1022 3 4.0999999999999998e-01 4.7171441212850436e+00 6.7275636127230456e+00 9.1080805277779646e+00 -2 3 2
2989 997 3 4.0999999999999998e-01 2.3564042143664019e-01 4.2291683146827905e+00 4.3122826389914282e-01 -3 -3 3
4143 1381 3 4.0999999999999998e-01 2.0472840734734887e-01 7.8256530462227791e-01 5.0663793667191399e+00 4 1 -3
4971 1657 3 4.0999999999999998e-01 7.5779872543796660e+00 8.9353706321602167e-01 1.0375114337374374e+01 -1 0 -1
2180 727 4 -8.1999999999999995e-01 3.8630931320619046e+00 1.9341670583194204e+00 3.5433199700462077e+00 2 -2 -2
3186 1062 3 4.0999999999999998e-01 2.9837442961989730e-01 5.2727954637723204e+00 8.7722932709531989e+00 0 3 1
6812 2271 4 -8.1999999999999995e-01 2.8655555279756353e+00 3.6892996229513138e+00 1.9508709096315990e+00 1 0 4
855 285 3 4.0999999999999998e-01 9.2421433019207484e+00 1.6520415643346903e-01 8.1478096910831432e+00 2 -4 0
1216 406 3 4.0999999999999998e-01 7.6900219050585568e+00 1.6026910818887614e+00 4.0504396160130840e+00 1 -2 2
2991 997 3 4.0999999999999998e-01 1.3007998974579693e+00 3.5306896592430861e+00 1.5867843600885894e+00 -3 -3 3
6623 2208 4 -8.1999999999999995e-01 7.6954411195847277e+00 4.0886377044468638e+00 9.0647967144176498e+00 -1 -1 2
4901 1634 4 -8.1999999999999995e-01 1.9337183671160318e-01 9.4190901842041352e+00 6.5166477402348777e+00 1 -1 0
6165 2055 3 4.0999999999999998e-01 8.8909836224469014e+00 9.7929790608883778e+00 5.0810869769792646e+00 3 3 1
4958 1653 4 -8.1999999999999995e-01 9.8267951046614677e+00 4.5129326971153549e+00 4.2152381350762314e+00 -1 -3 -3
6164 2055 4 -8.1999999999999995e-01 9.4437926674836827e+00 9.2651533572369882e+00 5.7403583730975756e+00 3 3 1
7207 2403 3 4.0999999999999998e-01 4.1574374582337716e+00 3.2604308427465032e+00 5.5054736378194136e-01 3 0 0
497 166 4 -8.1999999999999995e-01 7.4147688818810886e+00 8.8799187182505399e+00 2.0281831774521941e+00 1 1 0
6813 2271 3 4.0999999999999998e-01 3.1912912654121306e+00 2.9568571145655356e+00 2.6326056707654990e+00 1 0 4
6071 2024 4 -8.1999999999999995e-01 5.1063515917523468e+00 8.7536088748392977e+00 1.7850601641875644e-01 -1 1 -5
4900 1634 3 4.0999999999999998e-01 6.4814655916788111e-01 1.0350814991003194e+01 6.6917763259822740e+00 1 -1 0
5217 1739 3 4.0999999999999998e-01 6.9792405232324892e+00 3.0152216561270744e+00 9.9136688110866995e+00 0 -1 1
6553 2185 3 4.0999999999999998e-01 4.9010576507742893e+00 4.0420613416176581e+00 6.1886914044502674e+00 -1 3 -3
1184 395 4 -8.1999999999999995e-01 6.0929709634059515e-01 4.8416127541180343e+00 5.6129194317734203e+00 0 1 -1
7317 2439 3 4.0999999999999998e-01 7.8149454052752620e+00 9.7257512018670287e+00 8.4781425171287168e+00 2 0 -1
5719 1907 3 4.0999999999999998e-01 1.0328118568901006e+01 7.1752641412226499e+00 6.7299468647116267e+00 1 1 1
2947 983 3 4.0999999999999998e-01 6.8048097878574554e+00 5.5719661341576776e+00 8.4022804758535461e+00 -3 -1 3
1217 406 4 -8.1999999999999995e-01 8.3630387381931186e+00 8.0203977972801599e-01 4.0015824260753314e+00 1 -2 2
5720 1907 4 -8.1999999999999995e-01 1.0236330495229412e+01 6.9772032780072744e+00 7.7476421670534767e+00 1 1 1
4947 1649 3 4.0999999999999998e-01 6.1863519176669888e+00 1.0030676379209638e+01 4.0174093524647843e+00 -2 2 1
3095 1032 4 -8.1999999999999995e-01 8.0265568232824016e+00 6.4344099457856787e+00 9.0097847864130920e-01 1 2 1
389 130 4 -8.1999999999999995e-01 9.3745967492632265e-01 6.5537478513227496e+00 9.6687661296167313e+00 0 2 0
3611 1204 4 -8.1999999999999995e-01 4.5425282933337199e+00 1.0254472913334068e+01 1.0289065512571497e+01 1 -1 1
1827 609 3 4.0999999999999998e-01 2.9975007659213282e+00 5.4634394654506950e+00 4.7611376968481567e+00 -1 4 3
4014 1338 3 4.0999999999999998e-01 3.3012594497069605e+00 2.3494899060432406e+00 5.8989290002781853e+00 2 -1 2
7316 2439 4 -8.1999999999999995e-01 7.9075308165298770e+00 8.7963946803493442e+00 8.0165385209690800e+00 2 0 -1
6624 2208 3 4.0999999999999998e-01 8.4037186421549688e+00 4.3703341017675088e+00 9.7440189191926461e+00 -1 -1 2
3204 1068 3 4.0999999999999998e-01 4.0004420374992211e+00 9.4670852734914828e+00 4.7841271134194860e+00 0 3 1
4902 1634 3 4.0999999999999998e-01 8.8768137332871000e-01 8.7678411149797437e+00 6.9788579547746297e+00 1 -1 0
3203 1068 4 -8.1999999999999995e-01 4.5021708919632815e+00 9.6871199468440654e+00 3.8702643288568543e+00 0 3 1
489 163 3 4.0999999999999998e-01 2.6403923049349718e+00 8.3367144305386116e+00 6.2945781786653656e+00 3 1 -1
2432 811 4 -8.1999999999999995e-01 5.6358727548723682e+00 1.5224313042359345e+00 7.8119329073427046e+00 0 -2 -2
7296 2432 3 4.0999999999999998e-01 7.3519423490655527e+00 1.1271909647356735e+00 7.2772725556321181e+00 0 5 0
4946 1649 4 -8.1999999999999995e-01 7.0825417611929389e+00 1.0566789781573016e+01 4.1211903943987265e+00 -2 2 1
4908 1636 3 4.0999999999999998e-01 8.0247236801992052e+00 3.0600600305834598e+00 1.4724473083021463e+00 1 1 0
2181 727 3 4.0999999999999998e-01 4.8654909355920966e+00 2.1614676177040248e+00 3.7297330074059003e+00 2 -2 -2
4013 1338 4 -8.1999999999999995e-01 3.7031859817694568e+00 2.9899466359713380e+00 6.6149048900953611e+00 2 -1 2
6554 2185 4 -8.1999999999999995e-01 5.6464875736232676e+00 4.5976111316533990e+00 5.8167358818504606e+00 -1 3 -3
390 130 3 4.0999999999999998e-01 1.9708484519822878e+00 6.4537464032341454e+00 9.7738139164518003e+00 0 2 0
4959 1653 3 4.0999999999999998e-01 9.3614333824649805e+00 4.3548557457219212e+00 5.1321095013006337e+00 -1 -3 -3
7315 2439 3 4.0999999999999998e-01 8.4048838395187335e+00 8.9759940104058895e+00 7.1304055425596182e+00 2 0 -1
5216 1739 4 -8.1999999999999995e-01 6.4814552498482794e+00 2.2275456933815230e+00 1.0380107629725559e+01 0 -1 1
5818 1940 3 4.0999999999999998e-01 7.2701796536807155e+00 8.2000206407451859e-01 8.9860254997001532e-01 1 -1 2
6072 2024 3 4.0999999999999998e-01 5.8768014804746125e+00 8.8224385337869400e+00 8.4491013597777376e-01 -1 1 -5
401 134 4 -8.1999999999999995e-01 1.8547735930119662e+00 6.9381570854535903e+00 6.7888973552828276e+00 -2 0 -1
496 166 3 4.0999999999999998e-01 7.4784855588262218e+00 9.4231479830308551e+00 2.9469390271746359e+00 1 1 0
5202 1734 3 4.0999999999999998e-01 3.3618510565161754e+00 7.0547213698990641e+00 2.7660918419822420e+00 -1 3 0
4906 1636 3 4.0999999999999998e-01 8.2715502404887289e+00 4.7423235836674911e+00 1.7355965195296565e+00 1 1 0
4907 1636 4 -8.1999999999999995e-01 7.9146645615441829e+00 3.8314162131882581e+00 2.1619568418510515e+00 1 1 0
3065 1022 4 -8.1999999999999995e-01 3.7552268953080050e+00 6.9156584267574370e+00 9.3402174725065255e+00 -2 3 2
5721 1907 3 4.0999999999999998e-01 9.2586806956959151e+00 7.1458124757983033e+00 7.9184741230319196e+00 1 1 1
3064 1022 3 4.0999999999999998e-01 3.7554928849900566e+00 7.2542391868843756e+00 1.0303978023024666e+01 -2 3 2
2937 979 3 4.0999999999999998e-01 6.3002299432270510e+00 3.5401323593159666e+00 4.7358037326078737e+00 2 1 -1
3233 1078 4 -8.1999999999999995e-01 9.4008085735768550e+00 3.2281710721152717e+00 6.8910013545743780e+00 3 0 1
2433 811 3 4.0999999999999998e-01 5.0444192686992873e+00 2.2210347024319046e+00 7.2915911697281670e+00 0 -2 -2
2949 983 3 4.0999999999999998e-01 6.6963291558316502e+00 7.2770803865927718e+00 8.2560590625442316e+00 -3 -1 3
4957 1653 3 4.0999999999999998e-01 9.1587004938749370e+00 4.2631311960023632e+00 3.4925263848405095e+00 -1 -3 -3
3234 1078 3 4.0999999999999998e-01 1.0394191359093536e+01 3.1139651319963391e+00 7.1869177632218957e+00 3 0 1
5292 1764 3 4.0999999999999998e-01 1.9551905545280051e+00 2.8923368840881594e+00 9.2996181838571115e+00 3 -3 0
2990 997 4 -8.1999999999999995e-01 3.7634075651552246e-01 3.3862175167820343e+00 1.1302125971407972e+00 -3 -3 3
6555 2185 3 4.0999999999999998e-01 5.6364733196543870e+00 5.4306789432492772e+00 6.3923962028526988e+00 -1 3 -3
1185 395 3 4.0999999999999998e-01 3.1916746013837721e-01 4.5712412961789983e+00 6.6094141534667639e+00 0 1 -1
5290 1764 3 4.0999999999999998e-01 3.0875735319327218e+00 3.7698654028923868e+00 1.0072563794083457e+01 3 -3 0
488 163 4 -8.1999999999999995e-01 3.2090722534483187e+00 9.1754071519782148e+00 6.1073702118635271e+00 3 1 -1
3232 1078 3 4.0999999999999998e-01 8.9419415112473910e+00 2.3548804660727960e+00 6.7589830339767891e+00 3 0 1
3202 1068 3 4.0999999999999998e-01 4.3004396772661870e+00 9.0248851302670410e+00 3.1272677618192408e+00 0 3 1
3096 1032 3 4.0999999999999998e-01 7.7722463205371985e+00 7.3395103498608618e+00 1.3352881734920863e+00 1 2 1
5200 1734 3 4.0999999999999998e-01 2.3255216727335060e+00 8.0266242887188479e+00 1.8943891135076762e+00 -1 3 0
6622 2208 3 4.0999999999999998e-01 8.3157174149299085e+00 4.0003875782227407e+00 8.2810818186114457e+00 -1 -1 2
2935 979 3 4.0999999999999998e-01 6.6427637027178266e+00 3.3079073605459763e+00 3.2237378254471469e+00 2 1 -1
2163 721 3 4.0999999999999998e-01 1.0527805452829584e+01 1.0108620275130930e+01 9.7936783066769255e+00 1 1 -2
5291 1764 4 -8.1999999999999995e-01 2.7437722481337823e+00 3.5215236680699289e+00 9.1368240089389836e+00 3 -3 0
6811 2271 3 4.0999999999999998e-01 2.9806312369752299e+00 4.5470132273319912e+00 2.5397638227869472e+00 1 0 4
388 130 3 4.0999999999999998e-01 5.6263054003023238e-01 7.3913983459116652e+00 1.0091750996967782e+01 0 2 0
6232 2078 3 4.0999999999999998e-01 1.0396774414247048e+01 6.1595984693079080e+00 4.5955866505476939e+00 2 3 -3
1825 609 3 4.0999999999999998e-01 4.4783793512125598e+00 5.4821064446754573e+00 3.9945321297092855e+00 -1 4 3
6163 2055 3 4.0999999999999998e-01 9.8644700176320228e+00 8.4583923729628392e+00 5.2789783248512530e+00 3 3 1
5215 1739 3 4.0999999999999998e-01 5.8458975735066661e+00 1.9674947495141308e+00 9.6103396369078471e+00 0 -1 1
2948 983 4 -8.1999999999999995e-01 6.2060610209405631e+00 6.3915907417306483e+00 8.0736606973577327e+00 -3 -1 3
4012 1338 3 4.0999999999999998e-01 3.1060269097977509e+00 3.1963073343825452e+00 7.4562024458604244e+00 2 -1 2
400 134 3 4.0999999999999998e-01 2.4401628331469194e+00 6.5453647606601528e+00 7.4990886941873116e+00 -2 0 -1
2936 979 4 -8.1999999999999995e-01 6.3967110053690996e+00 2.7738186050747697e+00 4.0740966718170419e+00 2 1 -1
4041 1347 3 4.0999999999999998e-01 9.7077463204247110e+00 6.2844770410718374e+00 1.3612770894785509e+00 1 1 0
2431 811 3 4.0999999999999998e-01 5.0654846287561703e+00 6.8309639391504329e-01 7.8640734312410361e+00 0 -2 -2
487 163 3 4.0999999999999998e-01 3.2044626367447506e+00 9.5803816478030583e+00 7.0361788782498245e+00 3 1 -1
1826 609 4 -8.1999999999999995e-01 3.4767688913816452e+00 5.6827073344058734e+00 3.8480593887716905e+00 -1 4 3
498 166 3 4.0999999999999998e-01 8.0899844976703790e+00 9.1987511224531548e+00 1.3080412213069887e+00 1 1 0
2179 727 3 4.0999999999999998e-01 3.6941341074803313e+00 1.0795616944860347e+00 3.0155788057619701e+00 2 -2 -2
7295 2432 4 -8.1999999999999995e-01 8.2015479985484170e+00 6.0571090834136687e-01 7.0284396686945962e+00 0 5 0
7294 2432 3 4.0999999999999998e-01 8.0917600920108441e+00 3.0813646818566770e-01 5.9928569388224755e+00 0 5 0
402 134 3 4.0999999999999998e-01 1.3153255459430802e+00 6.1829618812544540e+00 6.3718114407952555e+00 -2 0 -1
5026 1676 3 4.0999999999999998e-01 9.9162425505645562e+00 1.8163033554555147e-01 3.9326096260122791e+00 3 -1 2
2146 716 3 4.0999999999999998e-01 1.7041192209119205e+00 1.0515396759418396e+01 9.0846136638052837e+00 0 2 -3
1551 517 3 4.0999999999999998e-01 5.8269670287677133e+00 5.7909822015174273e+00 1.2676201004092638e+01 0 1 4
444 148 3 4.0999999999999998e-01 3.7039190190051485e+00 3.6750444737465311e+00 1.6358869519172352e+01 0 -2 0
4542 1514 3 4.0999999999999998e-01 4.8001144915139076e+00 1.6066459385663421e+00 1.2704256635360593e+01 2 0 3
1188 396 3 4.0999999999999998e-01 7.6583336765010790e+00 3.1276973075952106e+00 1.8378512743182867e+01 0 0 0
2829 943 3 4.0999999999999998e-01 9.5136682659477749e+00 6.4139074384845773e-01 1.9901435542587606e+01 0 3 2
3017 1006 4 -8.1999999999999995e-01 2.1725748787098449e+00 2.1214253800149421e+00 1.3934151699131689e+01 2 1 -2
1843 615 3 4.0999999999999998e-01 7.0831189830872683e+00 1.1119789125014912e+00 1.6545421864398062e+01 1 2 -1
3053 1018 4 -8.1999999999999995e-01 3.7916819382124727e+00 1.3066832339370877e+00 1.8705430564824280e+01 0 0 -3
933 311 3 4.0999999999999998e-01 5.9204649901080442e-01 1.5440269346621673e+00 1.0807410642996155e+01 0 2 1
4191 1397 3 4.0999999999999998e-01 2.8229038542560141e+00 3.6853764613132139e-01 1.1566715887918258e+01 3 -4 -2
2197 733 3 4.0999999999999998e-01 1.7669883119545027e+00 4.9055261087219151e+00 1.9625048596707764e+01 -2 -1 2
6691 2231 3 4.0999999999999998e-01 2.3154774077982037e+00 5.4598125567998306e+00 1.4367626896858942e+01 3 0 0
2056 686 3 4.0999999999999998e-01 9.6564653796119035e+00 9.3475851847559106e+00 1.4338976085399532e+01 -2 -1 -3
1080 360 3 4.0999999999999998e-01 1.0374884658752320e+01 8.9151483039568902e+00 1.1525040095740712e+01 1 -2 0
1247 416 4 -8.1999999999999995e-01 1.4380265901849050e+00 5.2211327019873073e+00 1.8080818921886564e+01 1 1 0
5322 1774 3 4.0999999999999998e-01 6.6056152470914729e+00 8.7609287757262138e+00 1.9942503990152588e+01 1 2 -1
3650 1217 4 -8.1999999999999995e-01 4.8139023465350892e+00 9.1110084171057846e+00 2.0164166719640310e+01 -2 0 4
1906 636 3 4.0999999999999998e-01 7.9462893763564795e+00 5.7150702671753404e+00 1.5959982305286902e+01 -1 1 3
7114 2372 3 4.0999999999999998e-01 4.3471102855716843e+00 3.5561806787547923e+00 1.3688912175716940e+01 -3 -1 1
2057 686 4 -8.1999999999999995e-01 1.0392496231269629e+01 1.0164166156411822e+01 1.4355379615714483e+01 -2 -1 -3
6981 2327 3 4.0999999999999998e-01 4.6809764124540992e-01 1.0339093598020153e+00 1.6534782102962200e+01 3 2 -2
398 133 4 -8.1999999999999995e-01 6.3987067892184983e+00 2.6965909233555303e+00 1.5879223959566428e+01 -2 0 0
1907 636 4 -8.1999999999999995e-01 8.1766368449517444e+00 4.7170194789176083e+00 1.5777563909503069e+01 -1 1 3
1550 517 4 -8.1999999999999995e-01 5.4307670067523972e+00 6.7224222688282493e+00 1.2928083565150130e+01 0 1 4
5080 1694 3 4.0999999999999998e-01 2.3555454138111163e+00 8.8136464100442413e-01 1.6797560192815478e+01 1 -1 3
7115 2372 4 -8.1999999999999995e-01 4.6175226705193593e+00 4.1118631112995896e+00 1.4531341655704543e+01 -3 -1 1
3052 1018 3 4.0999999999999998e-01 3.6310862295865007e+00 2.2572046250783986e+00 1.8288322673896282e+01 0 0 -3
3018 1006 3 4.0999999999999998e-01 1.6420822078308837e+00 1.8190838069489310e+00 1.4765991351400128e+01 2 1 -2
2607 869 3 4.0999999999999998e-01 9.2883955395200193e+00 8.4521171471047243e+00 2.0206526477701463e+01 2 0 0
3298 1100 3 4.0999999999999998e-01 3.3013368212884329e+00 7.9316565950360518e+00 1.9632018862380615e+01 -1 0 -1
1885 629 3 4.0999999999999998e-01 6.7034821680914973e+00 7.5752305166896416e+00 1.6675521347776648e+01 2 5 -1
4073 1358 4 -8.1999999999999995e-01 4.6996553505594694e+00 1.0028066046052725e+01 1.3977894534352190e+01 0 0 2
2605 869 3 4.0999999999999998e-01 9.7926748411886368e+00 6.8380217504384824e+00 2.0233760489868519e+01 2 0 0
5889 1963 3 4.0999999999999998e-01 7.9246965362756452e+00 7.8546001005911066e+00 1.4549034745579000e+01 4 1 -4
399 133 3 4.0999999999999998e-01 7.1111702151490865e+00 3.3579313144155245e+00 1.6033645820094264e+01 -2 0 0
3054 1018 3 4.0999999999999998e-01 2.9826259418568553e+00 7.4424769951868042e-01 1.8782973317362078e+01 0 0 -3
2508 836 3 4.0999999999999998e-01 9.1421216899789624e+00 5.2360853655868667e+00 1.2229214157049871e+01 1 1 1
4189 1397 3 4.0999999999999998e-01 1.9942370728076002e+00 1.4717883116623725e+00 1.2302799052644907e+01 3 -4 -2
2506 836 3 4.0999999999999998e-01 9.8504417411944125e+00 6.1714010921562430e+00 1.0991970389066621e+01 1 1 1
5165 1722 4 -8.1999999999999995e-01 8.1536976527398810e+00 1.0483893576147272e+01 1.7523011154508179e+01 2 3 1
6733 2245 3 4.0999999999999998e-01 5.0858125142515158e+00 3.8953051120931786e-01 1.9103936544290494e+01 0 2 -1
4540 1514 3 4.0999999999999998e-01 5.4668583943157980e+00 2.6254161030795014e+00 1.1582461560127832e+01 2 0 3
893 298 4 -8.1999999999999995e-01 9.8159413352235809e+00 8.6350027587896854e+00 1.7287501247571701e+01 -2 2 -2
5321 1774 4 -8.1999999999999995e-01 7.5436880059713882e+00 8.8253547192053663e+00 1.9616587494095103e+01 1 2 -1
443 148 4 -8.1999999999999995e-01 3.1691622135405151e+00 3.4387116677161766e+00 1.7170053404940180e+01 0 -2 0
2890 964 3 4.0999999999999998e-01 5.2966300037857064e+00 6.7191043212139698e+00 1.7932595003183000e+01 0 -1 0
2950 984 3 4.0999999999999998e-01 9.7959720667956383e+00 4.5856152178309575e+00 1.8232281853626677e+01 0 0 6
3300 1100 3 4.0999999999999998e-01 1.6227824547993868e+00 7.6778009628971340e+00 1.9898197022620497e+01 -1 0 -1
4190 1397 4 -8.1999999999999995e-01 2.0015301155756871e+00 8.8424813736469265e-01 1.1424976928727718e+01 3 -4 -2
1549 517 3 4.0999999999999998e-01 6.1215806893251967e+00 7.5227374802066294e+00 1.2867875783415649e+01 0 1 4
1009 337 3 4.0999999999999998e-01 9.8954498301106195e+00 2.0850022715621037e+00 1.8134113032109344e+01 -1 1 0
1186 396 3 4.0999999999999998e-01 8.4934775287735267e+00 3.8962191504866186e+00 1.9480785613296728e+01 0 0 0
1246 416 3 4.0999999999999998e-01 4.1697272267627422e-01 5.1472398882204802e+00 1.8300530205473180e+01 1 1 0
2350 784 3 4.0999999999999998e-01 5.6825307986679965e+00 4.8771268535028867e+00 1.9666138100601554e+01 3 0 1
1079 360 4 -8.1999999999999995e-01 1.0459443635882204e+01 7.9132304272197436e+00 1.1880671055232357e+01 1 -2 0
1187 396 4 -8.1999999999999995e-01 8.6201343206021885e+00 3.2025760407104915e+00 1.8755694753199879e+01 0 0 0
3299 1100 4 -8.1999999999999995e-01 2.4473802458843936e+00 7.4705661985826923e+00 1.9317926461324184e+01 -1 0 -1
2638 880 3 4.0999999999999998e-01 3.7487640061342713e+00 7.1758705272849035e+00 1.5708441660436067e+01 0 1 -4
1701 567 3 4.0999999999999998e-01 5.5185163228634577e+00 1.1411325276773694e+00 2.0849611068771058e+01 4 -1 4
2352 784 3 4.0999999999999998e-01 4.7806727844476269e+00 4.4222856094640246e+00 1.8310827822556696e+01 3 0 1
5887 1963 3 4.0999999999999998e-01 7.9122816531920943e+00 8.6291956616748866e+00 1.3147225158407716e+01 4 1 -4
892 298 3 4.0999999999999998e-01 1.0063715744863257e+01 7.8518181415938191e+00 1.7915425658533561e+01 -2 2 -2
2776 926 3 4.0999999999999998e-01 3.9749991424203936e+00 7.8567416514540716e+00 1.2398573220213931e+01 3 -1 0
763 255 3 4.0999999999999998e-01 7.5437640373477892e+00 4.7279411530398852e+00 1.4002122147694092e+01 5 0 1
4883 1628 4 -8.1999999999999995e-01 8.7275098563822215e+00 5.0484065753090404e+00 2.0712048048518632e+01 2 -3 -4
2828 943 4 -8.1999999999999995e-01 9.6573070158913232e+00 3.9523410716580720e-01 2.0857635954572963e+01 0 3 2
4541 1514 4 -8.1999999999999995e-01 4.8735637307299537e+00 2.5740124866715224e+00 1.2442999790712834e+01 2 0 3
6693 2231 3 4.0999999999999998e-01 1.1049081351833572e+00 5.3089674856854412e+00 1.3327184470898631e+01 3 0 0
3443 1148 4 -8.1999999999999995e-01 1.0507448944914538e+01 2.1363681767209570e+00 1.3829668949522492e+01 -1 2 -3
2639 880 4 -8.1999999999999995e-01 3.5121888039701705e+00 6.6534280766456764e+00 1.4833510198325929e+01 0 1 -4
2891 964 4 -8.1999999999999995e-01 5.2389281162753658e+00 7.6326391967072009e+00 1.7593594827358089e+01 0 -1 0
2863 955 3 4.0999999999999998e-01 8.6039821297020485e+00 1.3935674724170595e+00 1.3880812942372989e+01 0 1 -1
2778 926 3 4.0999999999999998e-01 2.3612070529198186e+00 8.0628371272486206e+00 1.2184896289504257e+01 3 -1 0
2640 880 3 4.0999999999999998e-01 4.3403349043954096e+00 6.7566626498841327e+00 1.4213472602901540e+01 0 1 -4
2865 955 3 4.0999999999999998e-01 7.1543878668297332e+00 1.8376107977190930e+00 1.4492220921988888e+01 0 1 -1
1248 416 3 4.0999999999999998e-01 1.6804389861898823e+00 6.1989499045225775e+00 1.8226505318895388e+01 1 1 0
2198 733 4 -8.1999999999999995e-01 1.9665826654837024e+00 4.6832040614234360e+00 2.0580828210433587e+01 -2 -1 2
2777 926 4 -8.1999999999999995e-01 3.2836120697723974e+00 8.3237261462586023e+00 1.1760548448936198e+01 3 -1 0
3016 1006 3 4.0999999999999998e-01 1.8407107370250022e+00 3.0724601431219201e+00 1.3810254532988125e+01 2 1 -2
3649 1217 3 4.0999999999999998e-01 4.5200197717278359e+00 9.9739281990578608e+00 1.9640822696847607e+01 -2 0 4
5888 1963 4 -8.1999999999999995e-01 8.5669017569018759e+00 8.2294068818447244e+00 1.3794785289116003e+01 4 1 -4
1887 629 3 4.0999999999999998e-01 8.4298404221298942e+00 7.8301833993279253e+00 1.6539480042322644e+01 2 5 -1
5164 1722 3 4.0999999999999998e-01 8.8558780700090338e+00 9.6719764510102717e+00 1.7466921325082136e+01 2 3 1
1886 629 4 -8.1999999999999995e-01 7.6011418552381418e+00 7.2897920967983261e+00 1.6163970597188843e+01 2 5 -1
764 255 4 -8.1999999999999995e-01 7.2607453952621350e+00 4.6645002878246915e+00 1.3017736657593858e+01 5 0 1
6727 2243 3 4.0999999999999998e-01 6.2742682043190285e+00 9.4000766473327833e+00 1.1192018092222472e+01 1 0 1
765 255 3 4.0999999999999998e-01 7.0368580378514594e+00 3.7092059764751699e+00 1.2767241625319548e+01 5 0 1
2951 984 4 -8.1999999999999995e-01 1.0453919261528299e+01 5.3164043361100290e+00 1.7875357826122716e+01 0 0 6
6729 2243 3 4.0999999999999998e-01 5.9549245001782634e+00 9.5559233933398406e+00 1.2826515685071863e+01 1 0 1
2892 964 3 4.0999999999999998e-01 4.6588158475243402e+00 8.2393177078776709e+00 1.8179804086250730e+01 0 -1 0
6692 2231 4 -8.1999999999999995e-01 1.7074303737664087e+00 4.7507252424958955e+00 1.3908922528342030e+01 3 0 0
2351 784 4 -8.1999999999999995e-01 5.1965754729593598e+00 5.2152507527247352e+00 1.8808746993991214e+01 3 0 1
442 148 3 4.0999999999999998e-01 2.4100609724204776e+00 4.1163341883112876e+00 1.7254153149165695e+01 0 -2 0
397 133 3 4.0999999999999998e-01 5.6663456662626031e+00 3.2499339984567532e+00 1.5325274243047371e+01 -2 0 0
3923 1308 4 -8.1999999999999995e-01 3.3607906949393768e-01 9.1765820586035673e-01 2.0559220647640082e+01 -1 1 -1
2162 721 4 -8.1999999999999995e-01 1.0095290743050359e+01 1.0448314780263456e+01 1.0658692633367805e+01 1 1 -2
1010 337 4 -8.1999999999999995e-01 1.0260914919583453e+01 1.2237769312478046e+00 1.7683020266094864e+01 -1 1 0
1011 337 3 4.0999999999999998e-01 9.5124742981094919e+00 7.5057817592414156e-01 1.7228445456325659e+01 -1 1 0
1908 636 3 4.0999999999999998e-01 9.1628384138107748e+00 4.7226660429102401e+00 1.5467458394041522e+01 -1 1 3
5320 1774 3 4.0999999999999998e-01 7.4978605780884111e+00 9.6104354520855466e+00 1.9009894843311425e+01 1 2 -1
7116 2372 3 4.0999999999999998e-01 4.0806830320528746e+00 4.9941194122317203e+00 1.4560894312353366e+01 -3 -1 1
2864 955 4 -8.1999999999999995e-01 7.6413607423793213e+00 1.0650776130379571e+00 1.4074671960063609e+01 0 1 -1
6728 2243 4 -8.1999999999999995e-01 6.5651290718870809e+00 9.1590334256877508e+00 1.2096823320113410e+01 1 0 1
3269 1090 4 -8.1999999999999995e-01 4.2930026643676045e-01 7.6999939302119307e+00 1.2839836544809529e+01 4 -1 -3
2507 836 4 -8.1999999999999995e-01 9.4143622485555856e+00 5.2178303551365417e+00 1.1246759985441692e+01 1 1 1
1078 360 3 4.0999999999999998e-01 9.7768098365649099e+00 7.8711865522885587e+00 1.2656998721272219e+01 1 -2 0
1844 615 4 -8.1999999999999995e-01 7.4047919796289152e+00 2.9562213407108179e-01 1.7075779605245515e+01 1 2 -1
3612 1204 3 4.0999999999999998e-01 3.9091901920894592e+00 9.5723772619957792e+00 1.0747302161975146e+01 1 -1 1
2606 869 4 -8.1999999999999995e-01 1.0049549369286932e+01 7.8238768831723320e+00 2.0284785978071806e+01 2 0 0
4072 1358 3 4.0999999999999998e-01 3.7889686306026613e+00 1.0435662254672847e+01 1.3918323579854864e+01 0 0 2
186 62 3 4.0999999999999998e-01 1.0158650948269496e+00 7.0777752653739432e+00 1.6311610865797935e+01 0 2 3
1815 605 3 4.0999999999999998e-01 1.0508453671586654e+01 3.5464203919865511e+00 1.4840488056927162e+01 1 3 -2
4074 1358 3 4.0999999999999998e-01 5.1842409963425302e+00 1.0472055452677253e+01 1.4741371287573642e+01 0 0 2
3924 1308 3 4.0999999999999998e-01 1.2721199114877602e+00 1.3402658825312985e+00 2.0633152570462563e+01 -1 1 -1
2952 984 3 4.0999999999999998e-01 1.0451735629071983e+01 5.3552042181969615e+00 1.6840334750886868e+01 0 0 6
3444 1148 3 4.0999999999999998e-01 1.0533319428486804e+01 2.3428257849402252e+00 1.2881957200794197e+01 -1 2 -3
3270 1090 3 4.0999999999999998e-01 1.6393049775484769e-01 8.3481948121545511e+00 1.3600845414517117e+01 4 -1 -3
2199 733 3 4.0999999999999998e-01 2.8035793684807508e+00 5.1628986876213174e+00 2.0850315304404422e+01 -2 -1 2
5735 1912 4 -8.1999999999999995e-01 3.2550861076265325e+00 3.9234671317666442e-01 2.8071420477749864e+01 2 0 -2
55 19 3 4.0999999999999998e-01 7.5345653423371513e+00 2.1713118497994697e+00 2.8608624319269403e+01 1 -1 -1
2659 887 3 4.0999999999999998e-01 1.0366054712319277e+01 1.6718221847194514e+00 2.3883917712437096e+01 0 -2 -1
5593 1865 3 4.0999999999999998e-01 3.6348844548446992e+00 2.1055613640481141e-01 2.6434243892173523e+01 0 0 -4
2003 668 4 -8.1999999999999995e-01 4.7276733612444612e+00 8.2221132440522791e+00 2.5424476356631963e+01 2 -2 0
1699 567 3 4.0999999999999998e-01 5.3526346598138232e+00 1.1451145300525087e+00 2.2520955656702743e+01 4 -1 4
6420 2140 3 4.0999999999999998e-01 8.5165487897972749e+00 1.2493716726445148e+00 2.3631077358631117e+01 0 1 -2
2784 928 3 4.0999999999999998e-01 4.6534239707269061e+00 6.4131119851831633e+00 2.4951678181674421e+01 2 1 3
2002 668 3 4.0999999999999998e-01 3.7484221394105450e+00 8.3963481990805260e+00 2.5791338270131675e+01 2 -2 0
3193 1065 3 4.0999999999999998e-01 2.8574982676013114e+00 6.5411952976639851e+00 2.4320086805255315e+01 0 3 1
5184 1728 3 4.0999999999999998e-01 1.8980786296582459e+00 2.3025813629385437e+00 2.4251457898996314e+01 1 2 0
502 168 3 4.0999999999999998e-01 1.4047320648688333e+00 2.7710118976352343e+00 3.0814424067391744e+01 3 -2 1
6613 2205 3 4.0999999999999998e-01 5.7110148469978652e+00 7.7616363593657427e+00 2.7038493512701262e+01 -1 3 0
7002 2334 3 4.0999999999999998e-01 7.0573008542562645e+00 4.5355607317768554e+00 2.3460408821112928e+01 4 2 -2
5437 1813 3 4.0999999999999998e-01 6.8666578284425546e+00 1.0291089280690791e+01 2.5649621124070713e+01 1 -4 2
2877 959 3 4.0999999999999998e-01 6.0601973757914918e+00 3.1941722094149556e+00 2.4871039703029474e+01 2 -2 -3
4720 1574 3 4.0999999999999998e-01 5.6293413459704880e+00 1.3641144130197087e+00 2.8878446016045618e+01 3 -1 1
2631 877 3 4.0999999999999998e-01 3.8911291948887716e+00 9.8986954211289433e+00 2.7969881485782899e+01 0 1 1
2004 668 3 4.0999999999999998e-01 4.9169697825649745e+00 8.8785288651413818e+00 2.4712646807332330e+01 2 -2 0
3195 1065 3 4.0999999999999998e-01 1.2805115757300083e+00 6.6559047898529737e+00 2.4716286803181969e+01 0 3 1
5438 1813 4 -8.1999999999999995e-01 7.7282180117744890e+00 9.9193933298938575e+00 2.6009578542188883e+01 1 -4 2
5183 1728 4 -8.1999999999999995e-01 2.8669112843036682e+00 1.8976122887660420e+00 2.4119338829147239e+01 1 2 0
1515 505 3 4.0999999999999998e-01 2.3735239078001724e+00 7.7626775736138320e+00 2.7715173675594841e+01 0 0 1
829 277 3 4.0999999999999998e-01 9.5857674161545270e-01 8.7713353038849782e+00 2.1660639913756174e+01 3 3 1
6615 2205 3 4.0999999999999998e-01 6.5789623736682179e+00 7.4728502508677108e+00 2.8405508746784662e+01 -1 3 0
602 201 4 -8.1999999999999995e-01 2.4854613031513009e+00 9.6691797688238967e+00 3.0485507544980660e+01 -1 -3 3
3993 1331 3 4.0999999999999998e-01 8.5448705017657449e+00 5.2670275248048499e+00 2.7408059730993692e+01 3 0 1
7001 2334 4 -8.1999999999999995e-01 7.3344479951665758e+00 4.1969027450944036e+00 2.4370961724036430e+01 4 2 -2
5852 1951 4 -8.1999999999999995e-01 3.2123617056113005e+00 6.6232813699425712e+00 3.1061581014874967e+01 0 0 -1
6614 2205 4 -8.1999999999999995e-01 6.0566361731579397e+00 7.0346200246425017e+00 2.7658429739675181e+01 -1 3 0
56 19 4 -8.1999999999999995e-01 8.1945981766867870e+00 2.7162198953693450e+00 2.9199146666455125e+01 1 -1 -1
463 155 3 4.0999999999999998e-01 3.8329182192463569e+00 3.0999711296532912e+00 2.6679933905741294e+01 0 5 1
4375 1459 3 4.0999999999999998e-01 4.1212661652681581e-01 4.6478237801891114e+00 2.5156566802708706e+01 0 -1 0
2985 995 3 4.0999999999999998e-01 3.8315037484314804e+00 6.1028529729623093e+00 2.2534362108785309e+01 0 3 0
830 277 4 -8.1999999999999995e-01 1.4810329111505047e+00 9.1871777833202479e+00 2.2425561181841356e+01 3 3 1
3991 1331 3 4.0999999999999998e-01 7.2069414325220498e+00 6.1246796281866445e+00 2.6978969918785658e+01 3 0 1
2390 797 4 -8.1999999999999995e-01 5.1261016976809692e+00 8.9256272913351946e+00 3.0868442118729114e+01 -4 0 1
2875 959 3 4.0999999999999998e-01 4.5354773371437744e+00 2.6090590545162766e+00 2.4806118536144808e+01 2 -2 -3
4882 1628 3 4.0999999999999998e-01 7.8774593899129126e+00 4.9189140076555757e+00 2.1346817178599540e+01 2 -3 -4
4722 1574 3 4.0999999999999998e-01 5.2540143088067763e+00 2.2413895231734573e+00 3.0004226822433665e+01 3 -1 1
2827 943 3 4.0999999999999998e-01 9.5153800950805127e+00 1.1242752600500956e+00 2.1573699465432878e+01 0 3 2
4758 1586 3 4.0999999999999998e-01 3.8828886352904108e+00 5.7133843775327540e+00 2.9717744345169056e+01 0 1 -1