LAMMPS data file via write_data, version 5 Jun 2019, timestep = 9500000

7349 atoms
5 atom types
4899 bonds
2 bond types
2451 angles
2 angle types
1 impropers
1 improper types

1.5519297081455363e-01 4.1845807029189409e+01 xlo xhi
1.5469297081455124e-01 4.1845307029189406e+01 ylo yhi
1.5469297081455124e-01 4.1845307029189406e+01 zlo zhi

#Masses
#
#1 12.01
#2 40.08
#3 1.01
#4 16
#5 16
#
#Bond Coeffs # harmonic
#
#1 20.4246 1.3042
#2 22.965 1.012

Atoms # full

907 303 3 4.0999999999999998e-01 7.3005853067565720e+00 1.9241008869350027e+00 2.0265905487206699e+00 1 1 -3
5087 1696 4 -8.1999999999999995e-01 1.7701929772139990e+00 9.9096245320380056e+00 7.3277581375087681e+00 -1 0 1
6212 2071 4 -8.1999999999999995e-01 2.7671361800126770e-01 6.4649513257378466e+00 7.3168795172074452e-01 1 0 -2
5306 1769 4 -8.1999999999999995e-01 8.7830123980803929e+00 7.2952947135029547e+00 2.0233722252762534e+00 1 -1 -1
4743 1581 3 4.0999999999999998e-01 1.6915847577597596e+00 5.0168745778326942e+00 3.9451645848677774e+00 3 0 -1
5822 1941 4 -8.1999999999999995e-01 6.2230943760023543e+00 2.0598399260632316e+00 4.8830782421135305e-01 -1 0 3
4869 1623 3 4.0999999999999998e-01 6.0416585311744564e+00 4.2350057743865870e+00 2.8374015624343398e+00 1 4 -1
5086 1696 3 4.0999999999999998e-01 2.6072097000310452e+00 1.0343240218266152e+01 6.8904548861392190e+00 -1 0 1
3441 1147 3 4.0999999999999998e-01 7.1382855185219922e+00 7.6180152280432427e+00 1.9856723120925250e+00 2 1 5
4742 1581 4 -8.1999999999999995e-01 2.2384331761464313e+00 5.6240849040505347e+00 3.2372325304736456e+00 3 0 -1
1271 424 4 -8.1999999999999995e-01 7.3825956792169989e-01 3.0945859386765830e+00 8.3812349846920888e+00 0 2 -1
821 274 4 -8.1999999999999995e-01 9.5003030097595431e+00 6.4801072795944039e+00 6.0742655461363100e+00 1 1 -1
5441 1814 4 -8.1999999999999995e-01 3.5478047948246143e+00 2.3360157954219187e+00 6.5765919128386061e+00 1 0 0
1128 376 3 4.0999999999999998e-01 1.4439248565475935e+00 3.1391402785367899e+00 4.7655403076436063e+00 2 4 -2
6214 2072 3 4.0999999999999998e-01 3.4631052547684549e+00 5.8966266845237838e+00 7.5553705015551280e+00 -2 1 0
6950 2317 4 -8.1999999999999995e-01 9.5225299884595493e+00 3.4575281133571538e+00 6.4704861980488015e+00 2 -1 0
2811 937 3 4.0999999999999998e-01 3.6662083862916277e+00 2.1823458982105777e+00 8.9066391523651252e+00 0 -1 -2
1783 595 3 4.0999999999999998e-01 9.7941096245922203e+00 4.2982734753601820e-01 3.7722705515326649e-01 -1 0 0
1194 398 3 4.0999999999999998e-01 1.2554302001047990e+00 8.9778063288395007e+00 4.1157650071917962e+00 4 0 1
1272 424 3 4.0999999999999998e-01 1.6321106406814687e+00 2.7446496030236340e+00 8.7923862805547994e+00 0 2 -1
688 230 3 4.0999999999999998e-01 4.8914948823920854e+00 2.6049276907599372e-01 1.3431259900292956e+00 0 0 3
5953 1985 3 4.0999999999999998e-01 1.9933736004664546e+00 6.4098338587747419e+00 3.5693045261327783e-01 -1 1 -3
2914 972 3 4.0999999999999998e-01 6.2889200524166560e+00 5.8069477285648823e+00 4.4303328339187829e+00 -3 2 2
5456 1819 4 -8.1999999999999995e-01 4.6001258176230557e+00 1.0233623079534757e+01 6.2183667803911415e+00 -2 -2 4
6060 2020 3 4.0999999999999998e-01 4.7076801745745867e-01 2.1827444692949047e+00 5.9486527677125445e-01 3 -1 1
819 273 3 4.0999999999999998e-01 8.2105513768457428e+00 1.4554227052143640e+00 4.1013440766409532e+00 1 0 1
6904 2302 3 4.0999999999999998e-01 9.3578269048149085e+00 2.4761594508369984e+00 3.1151754339517415e+00 3 -1 4
6186 2062 3 4.0999999999999998e-01 7.3544247794463500e+00 1.6816278074741948e+00 1.0413206672652919e+01 1 1 0
521 174 4 -8.1999999999999995e-01 2.3865298865698992e+00 8.5652953619736625e+00 9.3833043502717111e+00 1 1 0
6059 2020 4 -8.1999999999999995e-01 1.4163162236750364e+00 1.8220122615032639e+00 8.2385868259955253e-01 3 -1 1
1127 376 4 -8.1999999999999995e-01 8.6688155653514198e-01 3.9454154989585741e+00 5.0785991924129696e+00 2 4 -2
3914 1305 4 -8.1999999999999995e-01 6.3345522934477572e+00 1.0452378715196234e+01 8.3731944981462494e+00 -5 -3 2
5303 1768 4 -8.1999999999999995e-01 3.7546868158467239e+00 3.0355187666059926e+00 4.9349512606033669e-01 2 0 -2
3440 1147 4 -8.1999999999999995e-01 6.1537958875528318e+00 7.8586699608291362e+00 1.6404255648687591e+00 2 1 5
4633 1545 3 4.0999999999999998e-01 9.7735765693144643e+00 6.6077791245815511e+00 8.9772498443445023e+00 1 -1 -1
822 274 3 4.0999999999999998e-01 9.4992635805429675e+00 7.3466188791973410e+00 6.5898741491520436e+00 1 1 -1
2455 819 3 4.0999999999999998e-01 4.0366501004164981e+00 4.4177023933048731e-01 6.7443886740129564e+00 0 0 3
4867 1623 3 4.0999999999999998e-01 7.4325806926019515e+00 4.1653840256653876e+00 2.0492771216072416e+00 1 4 -1
624 208 3 4.0999999999999998e-01 4.0604049212172768e+00 2.8284660114382745e+00 3.1807158357739831e+00 -1 -1 3
2809 937 3 4.0999999999999998e-01 2.8187074187647951e+00 1.0913054111828582e+00 9.8771565243116335e+00 0 -1 -2
5500 1834 3 4.0999999999999998e-01 5.1611849384353619e+00 4.6273897650013867e+00 8.2712084306744540e+00 -1 1 0
817 273 3 4.0999999999999998e-01 8.0022527030373567e+00 5.2059176379969696e-01 5.4111222586768220e+00 1 0 1
5265 1755 3 4.0999999999999998e-01 5.3988950100616142e+00 1.0408682506679908e+01 3.0481908124704646e+00 1 3 0
2213 738 4 -8.1999999999999995e-01 1.0020338465140494e+01 3.4933912080750171e+00 2.9321458972012310e-01 -1 -1 -2
5442 1814 3 4.0999999999999998e-01 4.4767444737407738e+00 2.4810482077856935e+00 6.2209316192505542e+00 1 0 0
818 273 4 -8.1999999999999995e-01 8.1482590328470863e+00 1.5238920889567933e+00 5.1649901435214121e+00 1 0 1
4868 1623 4 -8.1999999999999995e-01 7.0084667821033850e+00 4.6018908918777397e+00 2.8063905563151259e+00 1 4 -1
6215 2072 4 -8.1999999999999995e-01 2.6934996702188632e+00 6.2909435209647961e+00 6.9308578014384912e+00 -2 1 0
6058 2020 3 4.0999999999999998e-01 1.2321543193385707e+00 1.2086526551694634e+00 1.6856304426748723e+00 3 -1 1
1126 376 3 4.0999999999999998e-01 6.8801479374189567e-01 3.5621149217599490e+00 6.0041726359034806e+00 2 4 -2
5440 1814 3 4.0999999999999998e-01 3.2622786744879244e+00 3.1817997996911473e+00 7.0656416789861769e+00 1 0 0
820 274 3 4.0999999999999998e-01 8.5339449396136793e+00 6.2952048575188986e+00 6.0069749889743322e+00 1 1 -1
3834 1278 3 4.0999999999999998e-01 5.9522714818573697e-01 1.0225851941274190e+01 8.4472835238484389e+00 1 0 2
3565 1189 3 4.0999999999999998e-01 3.3628157872257129e+00 7.2742576608034586e+00 5.9115862120426241e+00 1 2 0
234 78 3 4.0999999999999998e-01 5.1905761969832929e+00 7.0869196231884031e+00 1.0500487428573303e+01 2 2 1
2818 940 3 4.0999999999999998e-01 6.7411698616297482e+00 2.4291993943471115e+00 5.4003450034135119e+00 -1 1 0
1185 395 3 4.0999999999999998e-01 1.0241266604907135e+01 5.8809487995139866e+00 4.5629200126614604e+00 0 0 0
6613 2205 3 4.0999999999999998e-01 9.1705385208902293e+00 2.2503939531819488e+00 9.2350162517162477e+00 -1 4 0
3567 1189 3 4.0999999999999998e-01 3.5423005642408585e+00 8.0141374632465538e+00 4.3920893086492283e+00 1 2 0
1543 515 3 4.0999999999999998e-01 5.9134667326678674e+00 9.9371903697283521e+00 4.9421475011661977e+00 1 0 1
7204 2402 3 4.0999999999999998e-01 7.3930685319636797e+00 3.7704952821757725e+00 8.9360394834760424e+00 -2 2 0
6757 2253 3 4.0999999999999998e-01 2.9175387119581697e+00 1.5150388240767227e+00 4.9217746833523073e+00 -2 0 0
4741 1581 3 4.0999999999999998e-01 2.0939005146044587e+00 6.5727735914983860e+00 3.4529506584151157e+00 3 0 -1
5455 1819 3 4.0999999999999998e-01 4.3948044523949239e+00 9.2152084840104305e+00 6.0413553178487103e+00 -2 -2 4
5305 1769 3 4.0999999999999998e-01 9.3021233087564728e+00 6.6778142079045768e+00 2.6514078660217519e+00 1 -1 -1
908 303 4 -8.1999999999999995e-01 8.1005455493361556e+00 1.5197814775012564e+00 2.5404489195614777e+00 1 1 -3
1193 398 4 -8.1999999999999995e-01 1.9920432351369239e+00 8.5504999481715647e+00 3.5159006228909861e+00 4 0 1
3566 1189 4 -8.1999999999999995e-01 4.0387029084800483e+00 7.7547702603073310e+00 5.2430215236824171e+00 1 2 0
4634 1545 4 -8.1999999999999995e-01 8.9362887485939755e+00 6.4601523711214561e+00 9.6026149074359228e+00 1 -1 -1
6759 2253 3 4.0999999999999998e-01 2.0155702791325938e+00 1.0928464571372698e+00 3.4542226378395462e+00 -2 0 0
5502 1834 3 4.0999999999999998e-01 4.0813462751875669e+00 5.1847207764384997e+00 9.3437122724915085e+00 -1 1 0
2819 940 4 -8.1999999999999995e-01 5.8928909281461435e+00 2.9768545960899266e+00 5.7040398443779923e+00 -1 1 0
5501 1834 4 -8.1999999999999995e-01 4.1536995051521295e+00 4.7454679438831286e+00 8.4291528002070066e+00 -1 1 0
6614 2205 4 -8.1999999999999995e-01 1.0055525046913628e+01 2.1230767225115827e+00 8.7325865760604682e+00 -1 4 0
1544 515 4 -8.1999999999999995e-01 6.4278005785060488e+00 9.5188878564752386e+00 4.1517820726624217e+00 1 0 1
622 208 3 4.0999999999999998e-01 3.7568341763396615e+00 4.4502342303680535e+00 3.4616938089292075e+00 -1 -1 3
3068 1023 4 -8.1999999999999995e-01 5.0968707652007588e+00 1.6632266553510469e-01 3.7354114146173707e+00 -2 1 0
2794 932 3 4.0999999999999998e-01 7.8956997574322969e+00 6.1870113169146164e+00 7.5815393481139026e-01 0 1 2
2810 937 4 -8.1999999999999995e-01 2.9171478564170452e+00 2.0994045592160080e+00 9.6180390378154144e+00 0 -1 -2
7205 2402 4 -8.1999999999999995e-01 7.0102235031943909e+00 4.4601999832911154e+00 8.2032767524032675e+00 -2 2 0
6758 2253 4 -8.1999999999999995e-01 2.3470728941313306e+00 1.8286512405475186e+00 4.1166336128960390e+00 -2 0 0
2915 972 4 -8.1999999999999995e-01 6.4413662607044984e+00 6.6215947271349069e+00 5.0492591935899558e+00 -3 2 2
1545 515 3 4.0999999999999998e-01 6.8028329297142092e+00 8.5691965155208472e+00 4.4831879186932930e+00 1 0 1
6185 2062 4 -8.1999999999999995e-01 7.7978896762194720e+00 2.6088219215782962e+00 1.0112130975938303e+01 1 1 0
5955 1985 3 4.0999999999999998e-01 3.2431273010895914e+00 5.7456905984718665e+00 1.1439480966190718e+00 -1 1 -3
3492 1164 3 4.0999999999999998e-01 3.1838015124307590e+00 1.0306951639925591e+01 9.8365684276070571e+00 1 0 1
6949 2317 3 4.0999999999999998e-01 9.4117716653478176e+00 4.2231470095809120e+00 5.8349371211361802e+00 2 -1 0
2820 940 3 4.0999999999999998e-01 5.3503176573020843e+00 3.3519056137921535e+00 4.9198267101697146e+00 -1 1 0
1192 398 3 4.0999999999999998e-01 2.2018780646707676e+00 9.0703397680002666e+00 2.6933337016926759e+00 4 0 1
7206 2402 3 4.0999999999999998e-01 6.6585531850004172e+00 4.0231451911590179e+00 7.3686731804984005e+00 -2 2 0
3426 1142 3 4.0999999999999998e-01 7.6545564575152039e+00 7.5138772242755794e+00 1.0563154480908828e+01 1 2 -2
5307 1769 3 4.0999999999999998e-01 9.5447645766829261e+00 7.7406482838373547e+00 1.5089619946698716e+00 1 -1 -1
2916 972 3 4.0999999999999998e-01 5.4897154365299334e+00 6.9046842818521768e+00 5.2377295406849118e+00 -3 2 2
6216 2072 3 4.0999999999999998e-01 1.7686610468858144e+00 5.9005825462662136e+00 7.1694168285049766e+00 -2 1 0
1174 392 3 4.0999999999999998e-01 9.3473931884619965e+00 9.3420357615899459e+00 8.2011940378617005e+00 4 -1 0
623 208 4 -8.1999999999999995e-01 4.4674467206898152e+00 3.6872846930524661e+00 3.5814642789548068e+00 -1 -1 3
6615 2205 3 4.0999999999999998e-01 9.8581448049415528e+00 2.8002383522945005e+00 7.9880527824936483e+00 -1 4 0
1175 392 4 -8.1999999999999995e-01 9.4226550218504066e+00 9.0274815515105367e+00 7.2048663368057770e+00 4 -1 0
5088 1696 3 4.0999999999999998e-01 1.1701462630799560e+00 9.7022273510549581e+00 6.4909290820245822e+00 -1 0 1
520 174 3 4.0999999999999998e-01 2.2603876571085606e+00 9.1075267772629491e+00 8.5133479688045259e+00 1 1 0
4635 1545 3 4.0999999999999998e-01 8.4263363414113428e+00 5.6363048253348547e+00 9.2606769388938996e+00 1 -1 -1
6951 2317 3 4.0999999999999998e-01 8.9778727929919686e+00 2.6839641206373677e+00 6.0237551505392144e+00 2 -1 0
909 303 3 4.0999999999999998e-01 8.6310217866150101e+00 7.9166158108830254e-01 1.9581585505551307e+00 1 1 -3
5457 1819 3 4.0999999999999998e-01 5.2811089375142650e+00 1.0347797430999695e+01 7.0131444893272441e+00 -2 -2 4
1176 392 3 4.0999999999999998e-01 8.9323477513347029e+00 9.7564403310779184e+00 6.6831563044502857e+00 4 -1 0
5304 1768 3 4.0999999999999998e-01 2.9138547077468187e+00 2.6912980870915661e+00 9.5560023808184380e-01 2 0 -2
6905 2302 4 -8.1999999999999995e-01 1.0172486861403511e+01 3.1188484721770680e+00 3.0858395449486489e+00 3 -1 4
3439 1147 3 4.0999999999999998e-01 5.7564604243523210e+00 8.5819460494689892e+00 2.2857061718341583e+00 2 1 5
5823 1941 3 4.0999999999999998e-01 5.2753888653411121e+00 2.4522516767653482e+00 5.7017647985417153e-01 -1 0 3
232 78 3 4.0999999999999998e-01 3.5042244384679937e+00 7.1878060802966122e+00 1.0459604856324637e+01 2 2 1
522 174 3 4.0999999999999998e-01 1.4415519817346574e+00 8.3515402868907369e+00 9.7533049229819131e+00 1 1 0
6213 2071 3 4.0999999999999998e-01 1.5723436355030376e-01 6.2521325199918589e+00 1.7366820319534690e+00 1 0 -2
2214 738 3 4.0999999999999998e-01 1.0109012461618534e+01 3.2942608508573610e+00 1.3476675978391539e+00 -1 -1 -2
1183 395 3 4.0999999999999998e-01 1.0501929736588371e+01 4.6901505374160122e+00 3.4790974027240877e+00 0 0 0
2016 672 3 4.0999999999999998e-01 3.1001764881324873e-01 8.0228733963903185e+00 2.7201118745654185e-01 2 4 0
562 188 3 4.0999999999999998e-01 3.6605883458816879e+00 1.0187277178604582e+01 1.5890846197381592e-01 -1 -1 0
5954 1985 4 -8.1999999999999995e-01 2.9467623755669683e+00 6.1039392975016593e+00 2.5043603436085959e-01 -1 1 -3
2212 738 3 4.0999999999999998e-01 9.3327713783944475e+00 4.3135222439422778e+00 2.1979044223069621e-01 -1 -1 -2
5984 1995 4 -8.1999999999999995e-01 9.3141459804036053e+00 2.9738068321956912e+00 1.9515038912654845e+01 2 1 -6
4495 1499 3 4.0999999999999998e-01 7.2923987738677276e+00 2.9321240989090454e+00 1.4694467152122204e+01 -1 2 1
3424 1142 3 4.0999999999999998e-01 7.1796963151486635e+00 8.7917127026010622e+00 1.1435486606955509e+01 1 2 -2
473 158 4 -8.1999999999999995e-01 4.4299595209111281e-01 5.9948970689907783e+00 1.2603625194873130e+01 3 2 2
4630 1544 3 4.0999999999999998e-01 6.2934945961071778e+00 2.4816043676346857e+00 1.8702660777631472e+01 0 -2 1
1912 638 3 4.0999999999999998e-01 5.3759006278302612e+00 7.1834850166314208e+00 1.3620358510781641e+01 1 -2 0
2066 689 4 -8.1999999999999995e-01 4.1294605741393431e+00 5.1584223232619619e+00 1.8760013805589786e+01 3 0 1
4525 1509 3 4.0999999999999998e-01 9.2019678462884293e+00 4.8494400372349746e+00 1.5097360191646951e+01 0 2 0
3896 1299 4 -8.1999999999999995e-01 4.2387638954534035e+00 4.4684280256265998e+00 1.2320065059510165e+01 2 -1 -1
5792 1931 4 -8.1999999999999995e-01 4.1691433687965587e+00 3.8250777782476173e+00 1.6419977256808394e+01 -1 -1 2
474 158 3 4.0999999999999998e-01 9.7169659043877454e-01 5.8727067344256065e+00 1.3458303789807083e+01 3 2 2
233 78 4 -8.1999999999999995e-01 4.3286351127935472e+00 6.5546782836697082e+00 1.0631371931220977e+01 2 2 1
6217 2073 3 4.0999999999999998e-01 2.1428810466012007e+00 9.4887103220665718e+00 1.8794741177736874e+01 1 1 -2
5367 1789 3 4.0999999999999998e-01 7.7140274052006239e+00 9.6736772533592692e+00 1.4060605470098979e+01 -1 1 3
2636 879 4 -8.1999999999999995e-01 5.4042382350748337e+00 7.4631278450656993e+00 1.7970560333583066e+01 1 -1 1
1368 456 3 4.0999999999999998e-01 4.2699293038738837e+00 8.6619255746112795e+00 2.0557729260195739e+01 -1 0 1
3895 1299 3 4.0999999999999998e-01 4.2955914435107303e+00 5.2985192704996278e+00 1.1688972931552351e+01 2 -1 -1
5889 1963 3 4.0999999999999998e-01 2.8396701000982478e+00 3.8889957305828160e+00 1.2100573335726011e+01 3 1 -3
6218 2073 4 -8.1999999999999995e-01 1.1528717824885109e+00 9.4573128200263525e+00 1.8494890037004904e+01 1 1 -2
3311 1104 4 -8.1999999999999995e-01 9.3893924962430173e+00 3.0602853578796259e+00 1.2492028038458660e+01 -1 -2 1
3933 1311 3 4.0999999999999998e-01 9.2118096399042155e+00 8.1860920815746283e+00 1.8006572174605704e+01 2 3 1
2990 997 4 -8.1999999999999995e-01 1.7891392395499468e+00 6.7738517531007831e+00 2.0590709631855074e+01 -3 -3 3
2637 879 3 4.0999999999999998e-01 4.8404396263031391e+00 8.1791895028321804e+00 1.8446720428614313e+01 1 -1 1
2991 997 3 4.0999999999999998e-01 2.3341433311367439e+00 7.4866374789641830e+00 2.0162895002281608e+01 -3 -3 3
5458 1820 3 4.0999999999999998e-01 8.8592868717192967e+00 2.0187290698455951e+00 1.7926073666364289e+01 1 -1 -2
5888 1963 4 -8.1999999999999995e-01 1.8618067091688655e+00 3.5383111895890145e+00 1.1825193844303392e+01 3 1 -3
1407 469 3 4.0999999999999998e-01 6.3347960237119691e+00 8.8165740773608317e+00 1.6508177915136852e+01 1 -2 3
2498 833 4 -8.1999999999999995e-01 1.5936815447196033e+00 8.0391930189841556e+00 1.6112966732776329e+01 1 1 -1
14 5 4 -8.1999999999999995e-01 2.6401102826343616e+00 1.7675577529256956e+00 1.6677204141022187e+01 -2 -1 -1
2343 781 3 4.0999999999999998e-01 4.4024471683129942e+00 1.5482246706095721e+00 1.8350025808852408e+01 0 3 -1
4875 1625 3 4.0999999999999998e-01 7.0323375443110461e+00 4.9333611931956343e+00 1.7896560057522439e+01 0 1 2
1746 582 3 4.0999999999999998e-01 3.9949861305793655e+00 8.8825616912071670e+00 1.4530744179631331e+01 0 -1 -1
6184 2062 3 4.0999999999999998e-01 8.4647916307089446e+00 2.8446719326566265e+00 1.0868212563768317e+01 1 1 0
2342 781 4 -8.1999999999999995e-01 5.3152518249961442e+00 1.1471497131954509e+00 1.8223859502276415e+01 0 3 -1
3310 1104 3 4.0999999999999998e-01 1.0354700815950126e+01 3.0596567930048093e+00 1.2282704166353442e+01 -1 -2 1
4065 1355 3 4.0999999999999998e-01 5.3704682434119089e-01 2.7220257279354190e+00 1.9382481330936031e+01 -2 -1 1
5459 1820 4 -8.1999999999999995e-01 8.5968201276722844e+00 1.4575267007753032e+00 1.7109975203221211e+01 1 -1 -2
4631 1544 4 -8.1999999999999995e-01 6.8018794875684412e+00 3.4125454009014291e+00 1.8770155032093093e+01 0 -2 1
6105 2035 3 4.0999999999999998e-01 2.2941705540785260e+00 4.6501671049909694e+00 1.5705879059909057e+01 -1 -2 1
3931 1311 3 4.0999999999999998e-01 7.8284689409086754e+00 7.2958993232080545e+00 1.8245998338330601e+01 2 3 1
6103 2035 3 4.0999999999999998e-01 6.3155916564255055e-01 4.8258222294479305e+00 1.5592437243388600e+01 -1 -2 1
3570 1190 3 4.0999999999999998e-01 6.6953383973602432e-01 9.7083342523693650e-01 2.0615468992094122e+01 -1 2 2
957 319 3 4.0999999999999998e-01 1.0501374786075319e+01 7.6557892871644206e+00 1.6278222869790731e+01 5 -1 1
3897 1299 3 4.0999999999999998e-01 4.6958886078776789e+00 4.8472555692564416e+00 1.3186174821562162e+01 2 -1 -1
3656 1219 4 -8.1999999999999995e-01 3.2612926828160163e+00 2.8210624428294033e+00 2.0219179256057206e+01 -2 0 2
6255 2085 3 4.0999999999999998e-01 8.3641074705047789e+00 6.6000875421510647e+00 1.2442167949823849e+01 -1 0 0
2065 689 3 4.0999999999999998e-01 3.7485293876787420e+00 4.3699167514818766e+00 1.9310185612128034e+01 3 0 1
6425 2142 4 -8.1999999999999995e-01 9.1978804320587155e+00 1.0478819673143389e+00 1.4485530829585892e+01 1 2 -1
15 5 3 4.0999999999999998e-01 1.7692874886449264e+00 2.2269657559048825e+00 1.6341314285413208e+01 -2 -1 -1
1914 638 3 4.0999999999999998e-01 5.6626654717000084e+00 8.4117070941683174e+00 1.2493153247778327e+01 1 -2 0
13 5 3 4.0999999999999998e-01 2.6488703406216172e+00 7.8296097517289354e-01 1.6338313496900618e+01 -2 -1 -1
201 67 3 4.0999999999999998e-01 4.7686658637414503e+00 1.0701838056372752e+00 1.3995474215611139e+01 2 2 1
1367 456 4 -8.1999999999999995e-01 3.7021844358479661e+00 8.8293758194377308e+00 1.9695587611123084e+01 -1 0 1
1366 456 3 4.0999999999999998e-01 3.8245404329601476e+00 9.8544652161652166e+00 1.9616823075267114e+01 -1 0 1
1406 469 4 -8.1999999999999995e-01 6.5927857172763487e+00 9.1351856451499636e+00 1.5628719862634705e+01 1 -2 3
6021 2007 3 4.0999999999999998e-01 5.4579531328585231e+00 1.7018086729529999e-01 1.6527333837374840e+01 -1 1 -1
5793 1931 3 4.0999999999999998e-01 5.0715108210143534e+00 3.4203539398562723e+00 1.6152620851529882e+01 -1 -1 2
4874 1625 4 -8.1999999999999995e-01 7.2632479777959258e+00 5.5280814387197577e+00 1.7078897476107496e+01 0 1 2
1853 618 4 -8.1999999999999995e-01 4.5226020418561080e-01 1.9054004614688425e+00 1.3455812374756418e+01 1 3 -1
6067 2023 3 4.0999999999999998e-01 4.7840011938921201e+00 5.2533656132288984e+00 1.5108605299063708e+01 -3 3 -3
5791 1931 3 4.0999999999999998e-01 3.7213771722689311e+00 2.9331796690636391e+00 1.6780795769137946e+01 -1 -1 2
4496 1499 4 -8.1999999999999995e-01 6.5773410240019317e+00 2.7603752616821917e+00 1.5440745502521985e+01 -1 2 1
3932 1311 4 -8.1999999999999995e-01 8.3526623338309491e+00 8.0542001532364793e+00 1.8611821301031977e+01 2 3 1
1913 638 4 -8.1999999999999995e-01 5.3328034782389482e+00 8.2089494797134250e+00 1.3442583791885061e+01 1 -2 0
6253 2085 3 4.0999999999999998e-01 9.1357736660601621e+00 5.3135460149068985e+00 1.2691384916659883e+01 -1 0 0
2499 833 3 4.0999999999999998e-01 1.5071845111346496e+00 7.0273951355170308e+00 1.5992619274032881e+01 1 1 -1
4497 1499 3 4.0999999999999998e-01 7.1009904857680368e+00 2.3045346716973758e+00 1.6167451306805315e+01 -1 2 1
4632 1544 3 4.0999999999999998e-01 7.6924033125360660e+00 3.2249843382520340e+00 1.9156610074212736e+01 0 -2 1
1744 582 3 4.0999999999999998e-01 2.8709191406194097e+00 8.7029253252766008e+00 1.5694954766911552e+01 0 -1 -1
2341 781 3 4.0999999999999998e-01 5.4045589969034928e+00 2.3753808640733301e-01 1.8666895028451705e+01 0 3 -1
3312 1104 3 4.0999999999999998e-01 9.2783510013741672e+00 2.2646196896410045e+00 1.3127954176104582e+01 -1 -2 1
3425 1142 4 -8.1999999999999995e-01 6.7908591115479977e+00 7.9817891490980477e+00 1.0985200876644248e+01 1 2 -2
632 211 4 -8.1999999999999995e-01 9.9910577770859756e+00 8.7188244507772055e+00 2.0894446005444799e+01 3 1 0
5985 1995 3 4.0999999999999998e-01 1.0073708003823688e+01 3.5650247486909845e+00 1.9208854742129965e+01 2 1 -6
1852 618 3 4.0999999999999998e-01 9.1292201016098029e-01 2.4828898387631790e+00 1.2708176167721394e+01 1 3 -1
5887 1963 3 4.0999999999999998e-01 2.0930701751561727e+00 2.7857937051301627e+00 1.1143415004219259e+01 3 1 -3
1563 521 3 4.0999999999999998e-01 9.8883691003718734e+00 7.3239348465060994e+00 1.3949725117904142e+01 -1 1 -1
6068 2023 4 -8.1999999999999995e-01 5.5740621640914085e+00 5.6034819307006769e+00 1.4515023920250901e+01 -3 3 -3
6254 2085 4 -8.1999999999999995e-01 8.8737733724348526e+00 6.1608324697840668e+00 1.3147025711804684e+01 -1 0 0
2067 689 3 4.0999999999999998e-01 3.9584696887716451e+00 4.7855068650900998e+00 1.7774310914229471e+01 3 0 1
2497 833 3 4.0999999999999998e-01 1.4013433605533359e+00 8.3353771954605875e+00 1.7114946525688421e+01 1 1 -1
5366 1789 4 -8.1999999999999995e-01 8.0549277338641225e+00 1.0192233838198289e+01 1.3203743421670220e+01 -1 1 3
4527 1509 3 4.0999999999999998e-01 8.6703342229314728e+00 4.8173153791746524e+00 1.6526334617739433e+01 0 2 0
5992 1998 3 4.0999999999999998e-01 6.9922099257887727e+00 9.8478915670633089e+00 1.9421787948073888e+01 -1 0 -2
913 305 3 4.0999999999999998e-01 9.5058006436383202e-01 5.2601738251764170e+00 1.9904150737314936e+01 2 1 1
4064 1355 4 -8.1999999999999995e-01 9.4058031447846491e-01 1.7861521706624559e+00 1.9235085583243954e+01 -2 -1 1
2635 879 3 4.0999999999999998e-01 4.8531542633134448e+00 6.5748732155550220e+00 1.8194276637381922e+01 1 -1 1
3657 1219 3 4.0999999999999998e-01 2.3881607802082878e+00 2.2773426455096359e+00 1.9925838570320003e+01 -2 0 2
4873 1625 3 4.0999999999999998e-01 6.5283738057432847e+00 6.2195549647427741e+00 1.7145130078346074e+01 0 1 2
5970 1990 3 4.0999999999999998e-01 4.3497440507433138e+00 1.2544856835960996e+00 2.0818259801866489e+01 -2 -1 1
6069 2023 3 4.0999999999999998e-01 6.4849968548027714e+00 5.4840417906562369e+00 1.5047166743051648e+01 -3 3 -3
6104 2035 4 -8.1999999999999995e-01 1.5415914354008664e+00 5.2716938018455091e+00 1.5308722330567020e+01 -1 -2 1
1405 469 3 4.0999999999999998e-01 5.9555267420098046e+00 8.7771224871207760e+00 1.4877835262215518e+01 1 -2 3
4526 1509 4 -8.1999999999999995e-01 9.3947622853323089e+00 4.3400710475330539e+00 1.5951861034471035e+01 0 2 0
7059 2353 3 4.0999999999999998e-01 6.1382541012974965e+00 5.6454511854446554e-01 1.1861442436579951e+01 -1 0 -1
1745 582 4 -8.1999999999999995e-01 3.5168642510234935e+00 9.4136618329484989e+00 1.5272868184740776e+01 0 -1 -1
5365 1789 3 4.0999999999999998e-01 8.8534589640864052e+00 9.7018893147064578e+00 1.2778450103974006e+01 -1 1 3
4535 1512 4 -8.1999999999999995e-01 1.0122067955193531e+01 9.2407046986641319e+00 1.1728443351107227e+01 1 -1 -1
7150 2384 3 4.0999999999999998e-01 2.6150165972741166e+00 1.0263169340200267e+01 1.4152013222408224e+01 1 -1 0
6424 2142 3 4.0999999999999998e-01 8.7045825837701045e+00 1.1209986351682297e+00 1.5410794823393816e+01 1 2 -1
199 67 3 4.0999999999999998e-01 4.5874566373230010e+00 2.3617289056841946e+00 1.2915692537397742e+01 2 2 1
2134 712 3 4.0999999999999998e-01 1.0493588803111795e+01 2.1221800417286780e+00 1.4868730061300175e+01 0 1 0
200 67 4 -8.1999999999999995e-01 4.6782394234617604e+00 1.3404090351022251e+00 1.2989315995668719e+01 2 2 1
5983 1995 3 4.0999999999999998e-01 9.6666407876178386e+00 2.5625346367145645e+00 2.0406317164901846e+01 2 1 -6
7058 2353 4 -8.1999999999999995e-01 6.6951733665342301e+00 1.8382415565248822e-01 1.1121008807770171e+01 -1 0 -1
3316 1106 3 4.0999999999999998e-01 6.0207661351813435e+00 5.7178178587842607e+00 2.0010180666782972e+01 2 1 2
472 158 3 4.0999999999999998e-01 7.8967943923798700e-01 5.2519338104076567e+00 1.1918533514436037e+01 3 2 2
4063 1355 3 4.0999999999999998e-01 3.0985483852337492e-01 1.1963717191563152e+00 1.8719797319142657e+01 -2 -1 1
5460 1820 3 4.0999999999999998e-01 8.2422081277665526e+00 5.3556262801774401e-01 1.7531395285677988e+01 1 -1 -2
1854 618 3 4.0999999999999998e-01 7.1387179063789019e-01 9.0884310842071203e-01 1.3264176586840197e+01 1 3 -1
914 305 4 -8.1999999999999995e-01 4.0964841508677036e-01 4.3645877646003477e+00 1.9872071382369423e+01 2 1 1
4006 1336 3 4.0999999999999998e-01 2.9228258339790997e-01 8.7947151135024182e+00 1.4996819179929899e+01 -1 0 2
631 211 3 4.0999999999999998e-01 9.5242047775052416e+00 8.1347709142382847e+00 2.0175816004721870e+01 3 1 0
3317 1106 4 -8.1999999999999995e-01 6.7972650400351862e+00 6.1815489345430885e+00 2.0448535065511024e+01 2 1 2
3318 1106 3 4.0999999999999998e-01 7.5218144272752836e+00 6.5433535714072670e+00 1.9765472626733487e+01 2 1 2
6219 2073 3 4.0999999999999998e-01 7.8465731953964879e-01 1.0345852332666375e+01 1.8324265322268271e+01 1 1 -2
4141 1381 3 4.0999999999999998e-01 8.6487087556921907e+00 8.9513779837626810e+00 3.0176644274971444e+01 4 0 -2
3569 1190 4 -8.1999999999999995e-01 3.1496490091669704e-01 5.4897604984359927e-01 2.1517380184996998e+01 -1 2 2
6677 2226 4 -8.1999999999999995e-01 1.0376172857908198e+01 3.1594976146950713e+00 2.8967099145152321e+01 1 3 2
4438 1480 3 4.0999999999999998e-01 2.8811501360536842e+00 7.6767452247940611e+00 2.4792612943224746e+01 0 2 0
4081 1361 3 4.0999999999999998e-01 3.4989401471100030e+00 1.3893021017639537e+00 2.4167008123015503e+01 1 0 3
6786 2262 3 4.0999999999999998e-01 5.1121302812705816e+00 6.7583843555356529e+00 2.4386691368526961e+01 -2 1 0
1765 589 3 4.0999999999999998e-01 7.1732353793710324e+00 2.8678096511859090e+00 2.3464450857807670e+01 0 2 1
1675 559 3 4.0999999999999998e-01 3.0787326415044829e+00 1.0482940516967908e+01 2.3132735821690780e+01 2 0 0
5848 1950 3 4.0999999999999998e-01 9.3990733936054944e+00 6.8665403151129734e-01 3.0397154749493268e+01 0 5 1
1835 612 4 -8.1999999999999995e-01 3.1066710615803204e+00 9.9904307665860370e-01 2.8003379623990586e+01 0 -1 0
4082 1361 4 -8.1999999999999995e-01 4.2032170488363834e+00 2.0181535187277237e+00 2.4586609069798588e+01 1 0 3
5175 1725 3 4.0999999999999998e-01 6.4689821003468104e+00 5.0767994294344900e+00 2.3553395038055218e+01 1 -2 0
1836 612 3 4.0999999999999998e-01 2.6489213645668759e+00 1.4887933394959689e+00 2.8794803371470081e+01 0 -1 0
471 157 3 4.0999999999999998e-01 4.5076082663559713e+00 5.5630383030334372e+00 2.7313199524824810e+01 -2 -3 1
31 11 3 4.0999999999999998e-01 8.7752254142473340e+00 2.0669362662226134e+00 2.2648304481816112e+01 -2 2 0
1157 386 4 -8.1999999999999995e-01 2.6318145879251600e+00 7.5350014885097494e+00 2.8989220396140063e+01 -1 -2 -2
7103 2368 4 -8.1999999999999995e-01 8.3865540962815590e+00 4.7497263534873637e+00 2.7424570771521971e+01 -1 -2 5
32 11 4 -8.1999999999999995e-01 9.6882556861987332e+00 2.1239342537933257e+00 2.2111609011904431e+01 -2 2 0
3982 1328 3 4.0999999999999998e-01 8.1018051598566498e-01 4.1790883823937248e+00 2.1823577048592739e+01 0 0 -1
3983 1328 4 -8.1999999999999995e-01 1.1178918554491530e+00 4.4422836187559289e+00 2.2711983161594951e+01 0 0 -1
5174 1725 4 -8.1999999999999995e-01 6.5177315764004877e+00 4.4605471170999937e+00 2.2744140879556433e+01 1 -2 0
7104 2368 3 4.0999999999999998e-01 7.6194419086914769e+00 4.2076596044549159e+00 2.7138643301917018e+01 -1 -2 5
966 322 3 4.0999999999999998e-01 6.5204448887169990e+00 4.0831553753411844e+00 3.0540777258795693e+01 1 1 -2
3082 1028 3 4.0999999999999998e-01 6.1892537201703970e+00 2.1895680942952134e+00 2.7566970483494245e+01 2 0 -2
6866 2289 4 -8.1999999999999995e-01 9.3202160585345233e+00 7.1169124535798840e+00 3.0827484691777773e+01 -3 -1 2
1677 559 3 4.0999999999999998e-01 3.1452059476480501e+00 9.3298696488849711e+00 2.4339381854427430e+01 2 0 0
573 191 3 4.0999999999999998e-01 8.1051972660566474e+00 9.8898795777392348e+00 2.6909664739036824e+01 1 -1 -1
6785 2262 4 -8.1999999999999995e-01 4.1570161238498802e+00 6.6891089013965672e+00 2.4029157084948178e+01 -2 1 0
5551 1851 3 4.0999999999999998e-01 9.4865662432688751e+00 5.8347259593939302e+00 2.6291423568043399e+01 -1 2 -2
6806 2269 4 -8.1999999999999995e-01 4.9217155053201864e+00 4.2749889735327162e+00 3.0389070882276581e+01 1 1 0
5849 1950 4 -8.1999999999999995e-01 9.9958818705422061e+00 6.1858675462859924e-01 2.9593528896522926e+01 0 5 1
5552 1851 4 -8.1999999999999995e-01 1.0017999827235229e+01 6.4779090640434092e+00 2.5751986365901995e+01 -1 2 -2