LAMMPS data file via write_data, version 5 Jun 2019, timestep = 500000

7349 atoms
5 atom types
4899 bonds
2 bond types
2451 angles
2 angle types
1 impropers
1 improper types

1.5519297081455363e-01 4.1845807029189409e+01 xlo xhi
1.5469297081455124e-01 4.1845307029189406e+01 ylo yhi
1.5469297081455124e-01 4.1845307029189406e+01 zlo zhi

#Masses
#
#1 12.01
#2 40.08
#3 1.01
#4 16
#5 16
#
#Bond Coeffs # harmonic
#
#1 20.4246 1.3042
#2 22.965 1.012

Atoms # full

1247 416 4 -8.1999999999999995e-01 4.4473053763981198e+00 1.5214349285358346e+00 9.5409592426380101e+00 1 1 1
1248 416 3 4.0999999999999998e-01 5.4067311454762779e+00 1.9373564343186540e+00 9.5398292651467731e+00 1 1 1
3097 1033 3 4.0999999999999998e-01 9.6875658550939303e-01 6.0702161049902914e+00 8.9015027573658010e+00 0 0 1
5128 1710 3 4.0999999999999998e-01 1.0299847017398591e+01 4.8450352032399824e+00 3.8222300829874292e+00 0 0 0
5062 1688 3 4.0999999999999998e-01 4.2834060587854150e+00 2.7498596254347905e+00 4.8347429249798752e+00 0 1 0
5368 1790 3 4.0999999999999998e-01 2.3690157674801871e+00 1.0088001700393094e+00 1.2420775599797187e+00 -1 0 2
4460 1487 4 -8.1999999999999995e-01 1.7940256003274970e+00 7.0352804669477855e+00 3.7555688541673615e+00 1 0 1
7179 2393 3 4.0999999999999998e-01 1.0265633973552305e+01 6.0267910006626710e+00 6.3587460325693401e+00 1 0 0
3635 1212 4 -8.1999999999999995e-01 6.3870247887074854e+00 2.5880686596075186e-01 5.8137733671745755e+00 0 0 1
4743 1581 3 4.0999999999999998e-01 8.7623068295713118e+00 7.9111521656346158e+00 5.6436446196643431e+00 2 -1 0
363 121 3 4.0999999999999998e-01 1.1453664379721789e+00 1.6648103887741230e+00 3.9242757412838731e+00 0 0 1
5217 1739 3 4.0999999999999998e-01 3.9731296430673990e-01 3.7678086881474671e+00 2.1837798194749447e+00 2 1 1
6944 2315 4 -8.1999999999999995e-01 7.3753739037974171e+00 1.3873041942950124e+00 2.7121570786865785e+00 0 0 1
5252 1751 4 -8.1999999999999995e-01 8.3158420266062141e+00 8.7658457354476162e+00 1.6580359545676622e+00 1 -1 0
259 87 3 4.0999999999999998e-01 7.9842770128562597e+00 2.0147914189583038e+00 8.9873854015876358e+00 0 1 0
2601 867 3 4.0999999999999998e-01 8.7820101902334731e+00 5.6584126660538487e+00 2.4004346830362224e+00 1 0 0
5723 1908 4 -8.1999999999999995e-01 4.4093458241457367e-01 7.0067657789264981e+00 1.0576218061431360e+01 1 0 0
4405 1469 3 4.0999999999999998e-01 5.5286909490855765e+00 4.1941970847788053e+00 1.0333880692958953e+01 1 1 0
4178 1393 4 -8.1999999999999995e-01 6.3592522736728108e-01 9.3451013113628374e+00 9.3798964470387975e+00 0 -1 1
427 143 3 4.0999999999999998e-01 2.9056218137157597e+00 6.4177804183809704e+00 7.3206941280848357e+00 1 0 0
4407 1469 3 4.0999999999999998e-01 5.3244558691058899e+00 5.6719717125030913e+00 9.7355769518558635e+00 1 1 0
5253 1751 3 4.0999999999999998e-01 9.1805732465883327e+00 8.5776923857983789e+00 1.0791409465713810e+00 1 -1 0
5063 1688 4 -8.1999999999999995e-01 4.2475462930620838e+00 1.6789586415353399e+00 4.8324344722265380e+00 0 1 0
6433 2145 3 4.0999999999999998e-01 2.4657296874418475e-01 2.2634198315897578e+00 7.7715117777510023e-01 0 1 2
2600 867 4 -8.1999999999999995e-01 8.2288694893307799e+00 6.1910410466441670e+00 3.0816634317145124e+00 1 0 0
3098 1033 4 -8.1999999999999995e-01 1.5220236709731099e+00 5.5603850492630160e+00 8.1755846237634096e+00 0 0 1
4742 1581 4 -8.1999999999999995e-01 8.8845010756781360e+00 8.9222222389861869e+00 5.3951065092051742e+00 2 -1 0
4805 1602 4 -8.1999999999999995e-01 4.2546181243550816e+00 6.9941767884313828e+00 1.0166150428635945e+01 -1 -1 1
3099 1033 3 4.0999999999999998e-01 9.7787727503488908e-01 5.6681106262155261e+00 7.2925124605903093e+00 0 0 1
7146 2382 3 4.0999999999999998e-01 8.5574558528702731e+00 5.3507960857535783e+00 4.5334287843732213e+00 1 0 0
4741 1581 3 4.0999999999999998e-01 8.1449428084859647e+00 9.4093152845488461e+00 5.9314239222103806e+00 2 -1 0
5331 1777 3 4.0999999999999998e-01 7.3200106724630913e+00 3.4764413522406117e+00 7.1892860536677459e+00 0 1 1
462 154 3 4.0999999999999998e-01 8.2122550789775435e+00 5.2701214080780154e+00 1.0390319515926555e+01 1 1 0
2473 825 3 4.0999999999999998e-01 1.9158966085145719e+00 5.2679081002866832e+00 1.0456752735392727e+00 0 1 0
2143 715 3 4.0999999999999998e-01 9.0910480144876527e+00 2.6300405473323751e+00 6.6818857922703687e+00 1 1 0
2144 715 4 -8.1999999999999995e-01 8.9116393848080762e+00 2.7883576982234284e+00 7.6619714490120723e+00 1 1 0
6865 2289 3 4.0999999999999998e-01 4.8694449380011759e+00 8.2478313532861538e+00 4.0645544491963728e+00 0 0 0
6866 2289 4 -8.1999999999999995e-01 5.1243888416140662e+00 7.6839076469451593e+00 4.8795094630873272e+00 0 0 0
1086 362 3 4.0999999999999998e-01 6.5621825000460037e+00 5.9224806982332732e+00 6.9789030113378194e+00 -1 0 1
260 87 4 -8.1999999999999995e-01 7.0947268843718874e+00 1.7026259002808357e+00 9.3951369084037424e+00 0 1 0
6576 2192 3 4.0999999999999998e-01 8.7067671013916055e+00 6.9933177542243175e-01 2.4078612270156250e+00 0 0 0
5699 1900 4 -8.1999999999999995e-01 7.2715668716605704e+00 8.8229637510262453e+00 8.7017045050801958e+00 0 0 -1
2921 974 4 -8.1999999999999995e-01 4.0265958234884236e+00 4.5215764776236425e+00 4.7931710046806497e+00 0 1 0
4665 1555 3 4.0999999999999998e-01 1.0111256320286312e+01 7.3199672516945471e+00 8.2110437095710598e+00 0 0 1
481 161 3 4.0999999999999998e-01 5.4977383898383350e+00 4.2623901659050301e+00 3.9435750637245124e+00 1 -1 0
361 121 3 4.0999999999999998e-01 2.6626417331968777e+00 1.1926392331123639e+00 3.9628331727005608e+00 0 0 1
1084 362 3 4.0999999999999998e-01 6.4778233522522148e+00 7.2912235353441126e+00 5.9725176486945593e+00 -1 0 1
6984 2328 3 4.0999999999999998e-01 2.1207808037577585e+00 3.8369380438344893e+00 9.1558031343294903e+00 0 0 1
4663 1555 3 4.0999999999999998e-01 8.8208798585762445e+00 8.1962540697694006e+00 8.9612022737512174e+00 0 0 1
1903 635 3 4.0999999999999998e-01 8.6976232108085298e+00 3.5759474948144838e+00 4.0839045508405702e-01 1 0 0
5369 1790 4 -8.1999999999999995e-01 3.0810140140374687e+00 6.0387740442817406e-01 6.7263786420658511e-01 -1 0 2
3641 1214 4 -8.1999999999999995e-01 2.4463553762977615e+00 8.9030037890636606e+00 5.8330408885037599e-01 1 -1 1
1905 635 3 4.0999999999999998e-01 8.2241562665371646e+00 2.3513421894760751e+00 1.4041445546406797e+00 1 0 0
5330 1777 4 -8.1999999999999995e-01 6.5546178391445462e+00 4.1902970084781606e+00 7.1827905722410570e+00 0 1 1
6943 2315 3 4.0999999999999998e-01 6.4735566764577968e+00 9.2364408761138372e-01 2.5834904326482824e+00 0 0 1
362 121 4 -8.1999999999999995e-01 1.8513241200670449e+00 1.1800502166052209e+00 3.3510861689667735e+00 0 0 1
6945 2315 3 4.0999999999999998e-01 7.3112522666453845e+00 2.2097995554338339e+00 3.2483060495611760e+00 0 0 1
2599 867 3 4.0999999999999998e-01 8.1126208651975915e+00 7.2089077778173989e+00 2.8022914577199787e+00 1 0 0
6867 2289 3 4.0999999999999998e-01 4.2792799921024276e+00 7.6204165048456236e+00 5.4536282026481091e+00 0 0 0
6983 2328 4 -8.1999999999999995e-01 2.1934848907517606e+00 2.9288524342752522e+00 9.5860213234064275e+00 0 0 1
483 161 3 4.0999999999999998e-01 6.8781280186600897e+00 5.0194957854289308e+00 3.2725893997406734e+00 1 -1 0
6103 2035 3 4.0999999999999998e-01 2.1887266212737644e+00 9.4188379201562640e+00 9.1027904981092647e+00 0 0 1
5039 1680 4 -8.1999999999999995e-01 3.4205774819012458e-01 5.5173977772265026e+00 5.4505238576594088e+00 1 1 0
1636 546 3 4.0999999999999998e-01 1.9477224078986202e-01 1.0057532919336646e+01 2.5602511794220644e+00 -1 0 0
319 107 3 4.0999999999999998e-01 4.4226360400815565e+00 9.2807913742952888e+00 1.7382307748307637e+00 1 -1 1
5329 1777 3 4.0999999999999998e-01 6.2012876962316676e+00 4.2262422145441834e+00 8.1459661439577520e+00 0 1 1
1246 416 3 4.0999999999999998e-01 4.6943912349017882e+00 6.0570673723840274e-01 1.0009725212661237e+01 1 1 1
3081 1027 3 4.0999999999999998e-01 5.4676797513589568e+00 4.0324413930845067e+00 1.9646488121965036e+00 0 0 0
320 107 4 -8.1999999999999995e-01 4.9443101564401974e+00 9.2162447050730254e+00 2.6258650654021158e+00 1 -1 1
482 161 4 -8.1999999999999995e-01 6.3719812218167613e+00 4.1384596646734462e+00 3.3364114538281475e+00 1 -1 0
321 107 3 4.0999999999999998e-01 5.8952771382242268e+00 8.8865362609798630e+00 2.4729077304187155e+00 1 -1 1
3080 1027 4 -8.1999999999999995e-01 5.0286912055262762e+00 4.1844238649063819e+00 1.0343299061176356e+00 0 0 0
2474 825 4 -8.1999999999999995e-01 1.3638037952414377e+00 4.9902455249802999e+00 1.8686451890868199e+00 0 1 0
429 143 3 4.0999999999999998e-01 3.3284265492899614e+00 7.9612223268796303e+00 7.8908573374829363e+00 1 0 0
3868 1290 3 4.0999999999999998e-01 1.0292495196346305e+01 1.0968005803056775e+00 7.8090713854889204e-01 -1 0 0
2145 715 3 4.0999999999999998e-01 9.5627789378210011e+00 3.4714926146828176e+00 8.1174945814706874e+00 1 1 0
5700 1900 3 4.0999999999999998e-01 7.0091230227730685e+00 8.1277481855079596e+00 7.9480623714968450e+00 0 0 -1
1638 546 3 4.0999999999999998e-01 1.2549450028865330e+00 9.0428802132806432e+00 1.7331302496750614e+00 -1 0 0
7144 2382 3 4.0999999999999998e-01 8.1124472310915365e+00 5.0702337860646907e+00 6.1030761432516130e+00 1 0 0
2920 974 3 4.0999999999999998e-01 4.2735890673697785e+00 5.3440493159367719e+00 5.2883296555503385e+00 0 1 0
5698 1900 3 4.0999999999999998e-01 7.5578550970991598e+00 9.7209595839171641e+00 8.2515427432555786e+00 0 0 -1
4459 1487 3 4.0999999999999998e-01 1.3825015882303306e+00 7.8563482233758473e+00 3.3445128257484318e+00 1 0 1
4177 1393 3 4.0999999999999998e-01 3.0313448698700141e-01 8.5181489779472219e+00 9.9401990022845244e+00 0 -1 1
7145 2382 4 -8.1999999999999995e-01 8.9186403309699518e+00 5.0647547502859762e+00 5.4333572970344823e+00 1 0 0
428 143 4 -8.1999999999999995e-01 3.3282524561424900e+00 7.3068434251924179e+00 7.0820996537328345e+00 1 0 0
3642 1214 3 4.0999999999999998e-01 2.7630662141275977e+00 7.9350776900175335e+00 4.5194039755472376e-01 1 -1 1
1427 476 4 -8.1999999999999995e-01 9.9947895977731782e-01 3.6941621117101447e-01 8.4236282703826948e+00 2 2 1
6105 2035 3 4.0999999999999998e-01 3.9234168871812392e+00 9.8666450145359583e+00 9.2149714787223420e+00 0 0 1
6574 2192 3 4.0999999999999998e-01 1.0223460462824297e+01 7.9367606060615525e-01 3.1082150957003813e+00 0 0 0
5064 1688 3 4.0999999999999998e-01 5.1648566845298483e+00 1.4477980854667014e+00 5.1757545650610597e+00 0 1 0
4804 1602 3 4.0999999999999998e-01 3.7621713177479390e+00 7.7879249466588947e+00 9.7375776804715901e+00 -1 -1 1
1085 362 4 -8.1999999999999995e-01 6.9561535478030425e+00 6.8896021495365423e+00 6.8309442911407467e+00 -1 0 1
5778 1926 3 4.0999999999999998e-01 6.9623363525213291e+00 8.5047382795866699e+00 1.0348622573851031e+01 -1 -1 0
4245 1415 3 4.0999999999999998e-01 3.6400728915018714e+00 5.2198441077463773e+00 3.7555303997749584e-01 0 1 0
6104 2035 4 -8.1999999999999995e-01 3.2078020018603666e+00 9.1238213929751613e+00 9.1397603443184305e+00 0 0 1
2922 974 3 4.0999999999999998e-01 3.1662330050291390e+00 4.7969946413171254e+00 4.2794284452453821e+00 0 1 0
2475 825 3 4.0999999999999998e-01 1.4862268588010379e+00 5.7269038705876234e+00 2.5843017312142229e+00 0 1 0
4406 1469 4 -8.1999999999999995e-01 5.8581334616527645e+00 4.8624306371384902e+00 9.6073097966387131e+00 1 1 0
1637 546 4 -8.1999999999999995e-01 5.5127603095226219e-01 9.0887556529502138e+00 2.5087213877775865e+00 -1 0 0
1904 635 4 -8.1999999999999995e-01 8.5326585201596838e+00 2.5634849247744254e+00 4.6633975778212999e-01 1 0 0
1403 468 4 -8.1999999999999995e-01 8.9921157945205650e+00 5.2391628949301490e+00 2.5717683564861826e-01 1 0 0
5251 1751 3 4.0999999999999998e-01 8.3818544375225947e+00 9.7156498476634265e+00 2.1323633078309485e+00 1 -1 0
4461 1487 3 4.0999999999999998e-01 1.1368913839430919e+00 6.5290795819696035e+00 4.3479755714597017e+00 1 0 1
506 169 4 -8.1999999999999995e-01 1.9269858186971651e+00 1.0037059209695949e+01 5.7808358494196970e+00 1 1 0
6982 2328 3 4.0999999999999998e-01 3.0696018574463082e+00 2.4206102828831062e+00 9.6443946603167650e+00 0 0 1
3079 1027 3 4.0999999999999998e-01 5.6758489868722615e+00 4.8926183353474872e+00 6.0333115276588245e-01 0 0 0
505 169 3 4.0999999999999998e-01 2.2842621867128319e+00 9.1535958502144759e+00 6.1333083234963910e+00 1 1 0
261 87 3 4.0999999999999998e-01 6.8887033093691556e+00 6.8204621816267397e-01 9.1692009661050697e+00 0 1 0
4664 1555 4 -8.1999999999999995e-01 9.8748667520725988e+00 7.9659971834289207e+00 8.9316718414276988e+00 0 0 1
4830 1610 3 4.0999999999999998e-01 1.0511885042489475e+01 9.6056409413923216e+00 5.2162368473614302e+00 0 -1 -1
1428 476 3 4.0999999999999998e-01 1.1960423972936016e+00 1.3265836476624173e+00 8.6045424518634963e+00 2 2 1
2491 831 3 4.0999999999999998e-01 4.2062965185020795e+00 1.0193057436905663e+01 3.7051918100354460e+00 0 -1 -1
4179 1393 3 4.0999999999999998e-01 2.0501725374114624e-01 9.4044769358289759e+00 8.4550497060104988e+00 0 -1 1
6575 2192 4 -8.1999999999999995e-01 9.7444734050018518e+00 3.4730908771431035e-01 2.2970773744544886e+00 0 0 0
485 162 4 -8.1999999999999995e-01 5.9053151462344431e+00 4.5720868783431969e+00 1.6904185121893544e+01 0 1 0
1754 585 4 -8.1999999999999995e-01 9.0512862516935062e+00 8.0025273475325651e+00 1.3635275020728800e+01 0 1 1
3192 1064 3 4.0999999999999998e-01 2.3448770920753730e+00 2.3167311527006706e+00 1.8834656744313975e+01 0 2 -1
460 154 3 4.0999999999999998e-01 7.8216591360573968e+00 6.6361765753406514e+00 1.1284336489750201e+01 1 1 0
3968 1323 4 -8.1999999999999995e-01 6.7021542669794405e+00 1.6030646052017508e+00 1.2355914688007658e+01 0 1 1
3164 1055 4 -8.1999999999999995e-01 2.7585246940755046e+00 8.3606148015690707e+00 1.6008065579919695e+01 2 1 1
6197 2066 4 -8.1999999999999995e-01 1.7228419125259178e+00 5.5893807522418104e+00 1.8808866593920825e+01 -1 0 0
6653 2218 4 -8.1999999999999995e-01 2.5945791740706778e+00 7.1780460818643679e+00 1.2613132166173450e+01 0 1 1
6652 2218 3 4.0999999999999998e-01 3.5543522622237540e+00 7.3918253197727752e+00 1.2841040243440100e+01 0 1 1
3901 1301 3 4.0999999999999998e-01 8.3695527458662866e+00 4.2531449594354473e+00 1.2215301498727060e+01 0 -1 0
1671 557 3 4.0999999999999998e-01 5.3272998990058866e+00 7.3630886280233643e+00 1.8654748554617598e+01 1 1 0
4465 1489 3 4.0999999999999998e-01 1.8681651224616098e+00 2.0095777780606849e+00 1.1855321969269836e+01 0 0 0
1670 557 4 -8.1999999999999995e-01 6.2068154845270973e+00 7.9326285517914803e+00 1.8561364431168517e+01 1 1 0
1753 585 3 4.0999999999999998e-01 8.0858298200789047e+00 8.3457905587012924e+00 1.3590197514731321e+01 0 1 1
3903 1301 3 4.0999999999999998e-01 9.5014768013417381e+00 3.0380783528540523e+00 1.2031276735952732e+01 0 -1 0
3191 1064 4 -8.1999999999999995e-01 3.2603635958468637e+00 2.7068642181873597e+00 1.8949098219218286e+01 0 2 -1
6981 2327 3 4.0999999999999998e-01 4.5833377736321607e-01 3.5935148473090583e+00 1.6682592072382953e+01 0 0 -1
6022 2008 3 4.0999999999999998e-01 6.2415937225201183e+00 5.9681399190202811e+00 1.5966204700736728e+01 2 1 1
931 311 3 4.0999999999999998e-01 7.6633791310147492e+00 2.8229674245349670e+00 1.9095466574227565e+01 0 0 0
5122 1708 3 4.0999999999999998e-01 9.0627593058793732e+00 6.3645520740101569e+00 1.8119355695731066e+01 0 0 0
1882 628 3 4.0999999999999998e-01 5.7880561657687704e+00 4.3910906400546879e-01 1.1809246791210832e+01 1 1 1
4591 1531 3 4.0999999999999998e-01 5.8684232648089383e+00 8.4412804855030252e+00 1.5700956066346247e+01 0 0 1
6141 2047 3 4.0999999999999998e-01 3.6885112265879134e+00 8.6753272996382105e+00 2.0958916709372836e+01 1 0 1
5724 1908 3 4.0999999999999998e-01 1.1361958727135364e+00 6.9744320633059180e+00 1.1272559325901932e+01 1 0 0
2328 776 3 4.0999999999999998e-01 4.9164067186886964e+00 1.8859092848352310e+00 1.5348032336214350e+01 1 0 0
579 193 3 4.0999999999999998e-01 7.6730732230046659e+00 1.9883544871126646e+00 1.5235396041036489e+01 0 0 1
6608 2203 4 -8.1999999999999995e-01 9.4022346569957083e-01 8.9043821811840722e+00 1.4057233370672874e+01 0 0 0
6023 2008 4 -8.1999999999999995e-01 6.6092649180840999e+00 6.9032651431164211e+00 1.5636031025261190e+01 2 1 1
6922 2308 3 4.0999999999999998e-01 1.0181770072376514e+01 7.7466848733869771e+00 1.0830791727612940e+01 0 0 1
5757 1919 3 4.0999999999999998e-01 9.0651534742313640e+00 1.0122537333193409e+00 1.8406642268427820e+01 0 0 0
5837 1946 4 -8.1999999999999995e-01 5.0872824715575824e+00 7.1498239969811772e+00 1.3593741269161326e+01 0 0 1
6368 2123 4 -8.1999999999999995e-01 1.0213215712298235e+01 5.4596657463194083e+00 1.9156539466241977e+01 0 0 0
1416 472 3 4.0999999999999998e-01 3.8540748330186871e+00 2.0540520334162053e+00 1.7443342327518952e+01 0 -1 0
6198 2066 3 4.0999999999999998e-01 1.3323282131275671e+00 6.2421450448935438e+00 1.9487742709004227e+01 -1 0 0
2373 791 3 4.0999999999999998e-01 3.1181548949079327e+00 5.8551050182090867e+00 1.8163284516411746e+01 0 0 0
461 154 4 -8.1999999999999995e-01 8.1866467711172337e+00 5.6599376787129225e+00 1.1329243085803904e+01 1 1 0
3236 1079 4 -8.1999999999999995e-01 5.5248477435251333e+00 3.7183273289307334e-01 1.9746173481864428e+01 0 0 0
932 311 4 -8.1999999999999995e-01 6.5953713119871171e+00 2.8242686301689490e+00 1.9076108473036246e+01 0 0 0
6367 2123 3 4.0999999999999998e-01 9.5722106174725656e+00 5.4507682422277970e+00 1.9951008879279854e+01 0 0 0
3967 1323 3 4.0999999999999998e-01 7.3131877598211243e+00 2.4129939768555975e+00 1.2047969952142692e+01 0 1 1
1489 497 3 4.0999999999999998e-01 2.4924729514289423e-01 8.3518151342110425e+00 1.9624905998804625e+01 0 1 0
666 222 3 4.0999999999999998e-01 1.0207587563262107e+01 7.1857796311769528e-01 1.5104589118622789e+01 0 0 0
5821 1941 3 4.0999999999999998e-01 2.6281083116132002e+00 9.1135612744060541e+00 1.7986303032195380e+01 0 0 1
484 162 3 4.0999999999999998e-01 5.1177431619419798e+00 5.1502767500193665e+00 1.7253054175697642e+01 0 1 0
5469 1823 3 4.0999999999999998e-01 4.8393701304326839e+00 5.3369033475435703e+00 1.3569847901233560e+01 0 1 -1
933 311 3 4.0999999999999998e-01 6.4913175018294211e+00 3.3575515878497280e+00 1.8227965978017242e+01 0 0 0
5838 1946 3 4.0999999999999998e-01 5.5661635741601021e+00 7.5286437855548982e+00 1.2798029609528943e+01 0 0 1
3165 1055 3 4.0999999999999998e-01 1.9122981310503100e+00 8.4696613993108247e+00 1.5469110439947860e+01 2 1 1
1490 497 4 -8.1999999999999995e-01 7.1276652638379789e-01 7.5624352257750731e+00 2.0108890378765860e+01 0 1 0
6979 2327 3 4.0999999999999998e-01 1.2443063579374838e+00 4.9107519486293301e+00 1.7218362009917165e+01 0 0 -1
486 162 3 4.0999999999999998e-01 5.6837309261034212e+00 3.7422767271853652e+00 1.6300101330602729e+01 0 1 0
873 291 3 4.0999999999999998e-01 1.4215479658868788e+00 3.7939715105352594e+00 1.3315394321283566e+01 0 2 0
3969 1323 3 4.0999999999999998e-01 6.2849523186042582e+00 1.7779195642122223e+00 1.3274892918199892e+01 0 1 1
871 291 3 4.0999999999999998e-01 1.6007995067538507e+00 4.5407696476581698e+00 1.4722661170621349e+01 0 2 0
5123 1708 4 -8.1999999999999995e-01 8.5066767030230483e+00 7.1119346196741748e+00 1.7729760209714264e+01 0 0 0
4467 1489 3 4.0999999999999998e-01 3.3940205122608025e-01 1.5942578282256503e+00 1.2427606209123038e+01 0 0 0
872 291 4 -8.1999999999999995e-01 1.6560070092069763e+00 4.7130454030798790e+00 1.3696703468153519e+01 0 2 0
4070 1357 4 -8.1999999999999995e-01 1.9363085264408519e+00 8.7789588486933634e-01 1.4937941559128777e+01 1 0 0
2326 776 3 4.0999999999999998e-01 5.0451753837271847e+00 3.2723052517717877e+00 1.4372168421699614e+01 1 0 0
3237 1079 3 4.0999999999999998e-01 5.6343450883961976e+00 1.3093239679004660e+00 1.9367001472395977e+01 0 0 0
5877 1959 3 4.0999999999999998e-01 1.0358597276318923e+01 4.2565611445432667e+00 1.4033260307034757e+01 0 0 1
1755 585 3 4.0999999999999998e-01 9.0638502542497150e+00 7.1638295381956025e+00 1.4209416866457337e+01 0 1 1
5374 1792 3 4.0999999999999998e-01 1.6921180560295762e-01 1.4876195037946873e+00 1.9970353337161949e+01 0 1 0
577 193 3 4.0999999999999998e-01 8.8378899572296632e+00 2.3527116488612951e+00 1.4019099418342279e+01 0 0 1
6196 2066 3 4.0999999999999998e-01 1.6669939186995970e+00 4.6270502815533314e+00 1.9137493052161993e+01 -1 0 0
4466 1489 4 -8.1999999999999995e-01 1.1984842670041209e+00 2.1718916557544805e+00 1.2662659174775037e+01 0 0 0
5375 1792 4 -8.1999999999999995e-01 6.4758160349732719e-01 1.8062249689526590e+00 1.9109337287018608e+01 0 1 0
6607 2203 3 4.0999999999999998e-01 1.3283317515081805e+00 9.7946855689733692e+00 1.3756114278563141e+01 0 0 0
4069 1357 3 4.0999999999999998e-01 2.5725474254680774e+00 1.4333825468497419e+00 1.5522240794992085e+01 1 0 0
5376 1792 3 4.0999999999999998e-01 2.8220532278114407e-01 1.2706788864695624e+00 1.8323203301854750e+01 0 1 0
5467 1823 3 4.0999999999999998e-01 3.4169050106578762e+00 4.6848220172480746e+00 1.3799016042454683e+01 0 1 -1
5468 1823 4 -8.1999999999999995e-01 4.3864709527404369e+00 4.4628960721921951e+00 1.3798334011949645e+01 0 1 -1
4592 1531 4 -8.1999999999999995e-01 5.2168580558828355e+00 9.2364216557644987e+00 1.5640444888570908e+01 0 0 1
578 193 4 -8.1999999999999995e-01 8.5891768877266710e+00 1.7510400129977148e+00 1.4846056016321619e+01 0 0 1
5836 1946 3 4.0999999999999998e-01 5.6845658553381666e+00 6.9831138827108949e+00 1.4441126338693461e+01 0 0 1
5997 1999 3 4.0999999999999998e-01 9.4932453423672225e+00 8.3819384157697154e+00 1.7326723233434905e+01 0 2 0
4593 1531 3 4.0999999999999998e-01 5.5725633023963193e+00 9.9406798175920965e+00 1.5029358023086044e+01 0 0 1
6024 2008 3 4.0999999999999998e-01 7.4743882775415083e+00 6.9601155390312792e+00 1.6135936954684361e+01 2 1 1
2371 791 3 4.0999999999999998e-01 3.5907861985033289e+00 7.0590304269990192e+00 1.7094576197281199e+01 0 0 0
5822 1941 4 -8.1999999999999995e-01 3.1375091947591840e+00 9.5075430366662932e+00 1.8792669589645577e+01 0 0 1
6609 2203 3 4.0999999999999998e-01 1.5532945615980500e+00 8.2742440320062176e+00 1.3467224669329111e+01 0 0 0
1415 472 4 -8.1999999999999995e-01 4.1469651427461898e+00 1.4277083611277341e+00 1.6655787000087720e+01 0 -1 0
5124 1708 3 4.0999999999999998e-01 7.5944905152920779e+00 7.2221605589151627e+00 1.8158558482939558e+01 0 0 0
7248 2416 3 4.0999999999999998e-01 9.3183167548228898e+00 1.0154574622060931e+01 1.8245172577093847e+01 0 0 1
6654 2218 3 4.0999999999999998e-01 2.2923915043559102e+00 6.2242614578935100e+00 1.2970459641382838e+01 0 1 1
6154 2052 3 4.0999999999999998e-01 5.4384498198020133e+00 2.9476191006921106e+00 2.0379167932644773e+01 -1 1 -1
6924 2308 3 4.0999999999999998e-01 1.0175120535839689e+01 7.9064654465268394e+00 1.2415662918700793e+01 0 0 1
3163 1055 3 4.0999999999999998e-01 3.5614099777811714e+00 8.7278883909480456e+00 1.5507431999481325e+01 2 1 1
5755 1919 3 4.0999999999999998e-01 9.2504828592382893e+00 2.0956077675357694e+00 1.9607642489380162e+01 0 0 0
5756 1919 4 -8.1999999999999995e-01 9.0948999346401234e+00 2.0198235201918981e+00 1.8606230659710945e+01 0 0 0
3902 1301 4 -8.1999999999999995e-01 8.8110405132398864e+00 3.4518202051474169e+00 1.2657241890953250e+01 0 -1 0
6973 2325 3 4.0999999999999998e-01 4.9977430448294230e-01 7.5381563984578348e-01 1.6038280235637608e+01 1 -1 0
4071 1357 3 4.0999999999999998e-01 1.7655358971230384e+00 1.3687148947471293e+00 1.4040782698221848e+01 1 0 0
3190 1064 3 4.0999999999999998e-01 3.5658706930813993e+00 2.8314970463192313e+00 1.9918804327326423e+01 0 2 -1
5777 1926 4 -8.1999999999999995e-01 6.3679358381662690e+00 8.3873641834595283e+00 1.1223215555837058e+01 -1 -1 0
1669 557 3 4.0999999999999998e-01 5.9535617381320787e+00 8.7943145187765204e+00 1.8076043573471182e+01 1 1 0
2327 776 4 -8.1999999999999995e-01 5.5576334724512702e+00 2.4438535746883621e+00 1.4708354313732004e+01 1 0 0
97 33 3 4.0999999999999998e-01 6.5675082272161296e+00 9.7028040189935574e+00 1.2109200788975306e+01 1 0 -1
2372 791 4 -8.1999999999999995e-01 3.9549340782142819e+00 6.3235332943627967e+00 1.7764711096114816e+01 0 0 0
5823 1941 3 4.0999999999999998e-01 4.0344406527480761e+00 9.7040228780140847e+00 1.8417177275491127e+01 0 0 1
5996 1999 4 -8.1999999999999995e-01 1.0438992703402526e+01 8.8265991563042299e+00 1.7396671295117468e+01 0 2 0
4806 1602 3 4.0999999999999998e-01 3.6769645019751507e+00 6.6039767849718096e+00 1.0973614629269745e+01 -1 -1 1
5776 1926 3 4.0999999999999998e-01 5.5033714549089270e+00 7.9699300923265266e+00 1.0830589714660931e+01 -1 -1 0
6980 2327 4 -8.1999999999999995e-01 1.1870278350875565e+00 4.2738129984368634e+00 1.6401815300568046e+01 0 0 -1
1414 472 3 4.0999999999999998e-01 4.3127930972360167e+00 4.4847476448442963e-01 1.7015934303595831e+01 0 -1 0
5995 1999 3 4.0999999999999998e-01 1.0559699210323584e+01 9.4450089188462254e+00 1.6557488270608367e+01 0 2 0
5183 1728 4 -8.1999999999999995e-01 1.0340393183942000e+01 1.0549330889345788e+01 1.5125148234716852e+01 -1 1 0
3897 1299 3 4.0999999999999998e-01 2.8505662105839731e+00 2.4946805587034007e-01 2.0719383014972465e+01 0 0 -1
837 279 3 4.0999999999999998e-01 7.0632405516714725e+00 1.0502407880310026e+01 2.0959641720034124e+01 1 1 0
4629 1543 3 4.0999999999999998e-01 9.9380890240185771e+00 1.4347503146387401e+00 1.0657654288732230e+01 2 0 0
1078 360 3 4.0999999999999998e-01 7.1332096857072038e+00 3.0663925485678289e+00 2.4968474019409268e+01 0 0 -1
6795 2265 3 4.0999999999999998e-01 1.0995160850342136e+00 2.6862193821169100e+00 2.9822025695511790e+01 0 0 1
4576 1526 3 4.0999999999999998e-01 7.6442525368248146e+00 7.3738551780017514e-01 3.0454823047927054e+01 0 0 -1
5967 1989 3 4.0999999999999998e-01 2.7509315001023324e+00 4.2846277258208900e+00 2.4348354830754953e+01 1 0 -1
3317 1106 4 -8.1999999999999995e-01 2.9534053167379590e+00 1.3784524667472036e+00 2.1926399318520581e+01 0 1 0
6483 2161 3 4.0999999999999998e-01 4.0589726590881048e+00 7.6450876303400541e+00 2.9901602010219456e+01 0 0 0
2456 819 4 -8.1999999999999995e-01 8.7981317110190158e+00 8.0073650522414539e+00 2.2334652307680585e+01 1 -1 0
5707 1903 3 4.0999999999999998e-01 1.3393406031372330e+00 5.9213200207424350e+00 2.3536038043825009e+01 1 1 -1
1600 534 3 4.0999999999999998e-01 7.7073805654840006e+00 7.7876552267314585e+00 2.6525455858354476e+01 1 -1 0
3172 1058 3 4.0999999999999998e-01 4.7432232539449730e+00 8.7707741233035108e+00 2.5882421044340717e+01 0 0 0
836 279 4 -8.1999999999999995e-01 8.0466841034126446e+00 1.0453550530249361e+01 2.1250953454395585e+01 1 1 0
4771 1591 3 4.0999999999999998e-01 1.5903271943324653e+00 2.6731582762833819e+00 2.1709004960540902e+01 1 0 1
5976 1992 3 4.0999999999999998e-01 4.8595838351005529e+00 7.6030816903039504e+00 2.4380192315478489e+01 0 1 0
7096 2366 3 4.0999999999999998e-01 2.8208565342447485e+00 7.7138559418271690e-01 2.5507357431274102e+01 1 1 0
6839 2280 4 -8.1999999999999995e-01 9.2018813102120589e+00 1.2140091591375328e+00 3.0076838707378194e+01 0 0 0
552 184 3 4.0999999999999998e-01 5.7958238115310348e+00 6.1990921864463457e+00 2.2894244271006073e+01 0 -1 0
1823 608 4 -8.1999999999999995e-01 1.0106398201059667e+01 5.3102851669061435e+00 2.7312225180935531e+01 0 1 0
6562 2188 3 4.0999999999999998e-01 8.0985973928835193e+00 1.1289949347087729e+00 2.1071098249934337e+01 0 1 -1
5965 1989 3 4.0999999999999998e-01 4.1875273832196225e+00 3.5322277298381031e+00 2.4809588628877393e+01 1 0 -1
5974 1992 3 4.0999999999999998e-01 3.8789426751800455e+00 7.8943685562513561e+00 2.3033078746716487e+01 0 1 0
5975 1992 4 -8.1999999999999995e-01 4.8356713651356458e+00 7.5526081168549313e+00 2.3358205578752020e+01 0 1 0
67 23 3 4.0999999999999998e-01 8.9239145109529137e+00 3.7997503558688286e+00 2.5832380943515684e+01 0 0 0
5031 1677 3 4.0999999999999998e-01 2.5134153582650143e+00 7.7844848421969726e+00 2.8309728750613100e+01 1 1 0
5639 1880 4 -8.1999999999999995e-01 9.6255944056406602e+00 7.1836405781887933e+00 2.5365402309672859e+01 1 1 0
5708 1903 4 -8.1999999999999995e-01 2.1586192917671641e+00 5.3593390723874146e+00 2.3280488069987356e+01 1 1 -1
6793 2265 3 4.0999999999999998e-01 1.1205737361621784e+00 3.2982719102963522e+00 2.8307880575547539e+01 0 0 1
6840 2280 3 4.0999999999999998e-01 8.9337533758978740e+00 2.0887727117969401e+00 2.9626341910000793e+01 0 0 0
3801 1267 3 4.0999999999999998e-01 1.9845128403458352e+00 8.7281547150567746e+00 2.5935502142897967e+01 1 0 0
2192 731 4 -8.1999999999999995e-01 4.1574692728237457e+00 4.7793931927281621e+00 2.9809795492446415e+01 0 0 0
3836 1279 4 -8.1999999999999995e-01 5.1370554216619455e+00 1.0381595112699385e+01 2.5257580427396370e+01 1 0 0
6246 2082 3 4.0999999999999998e-01 2.9648060816240265e+00 4.5999686906299670e+00 2.8300338339006608e+01 1 1 1
6140 2047 4 -8.1999999999999995e-01 2.9236038456232061e+00 8.3945677158993366e+00 2.1590529210631658e+01 1 0 1
6645 2215 3 4.0999999999999998e-01 8.3114136145754376e+00 1.0094641196158992e+01 2.5308815858983372e+01 0 0 0
69 23 3 4.0999999999999998e-01 9.4682079850954608e+00 2.5129154609840256e+00 2.4691341539610733e+01 0 0 0
2457 819 3 4.0999999999999998e-01 8.4588437540573249e+00 8.3776100959885138e+00 2.1447475723795939e+01 1 -1 0
68 23 4 -8.1999999999999995e-01 8.6993993213728693e+00 3.1292056688441008e+00 2.5165728474875731e+01 0 0 0
5744 1915 4 -8.1999999999999995e-01 8.8788074277657785e+00 5.0138082350535846e+00 2.1349809476175999e+01 1 1 0
1602 534 3 4.0999999999999998e-01 6.0949246770270831e+00 7.3541785409909419e+00 2.6754306450465041e+01 1 -1 0
4926 1642 3 4.0999999999999998e-01 4.6993527640808832e+00 1.8356482138225281e+00 2.7765934920528586e+01 0 0 0
3485 1162 4 -8.1999999999999995e-01 3.1261713480488573e-01 8.4433552357904791e+00 3.1011423964487772e+01 0 1 0
4311 1437 3 4.0999999999999998e-01 9.8027326317694374e+00 9.3286615346311397e+00 2.8834944410308825e+01 0 0 0
4925 1642 4 -8.1999999999999995e-01 5.6199104516136122e+00 2.2576057474116569e+00 2.7705989382756112e+01 0 0 0
7097 2366 4 -8.1999999999999995e-01 3.1325074470502385e+00 1.0759546422333517e+00 2.4579807041809243e+01 1 1 0
5640 1880 3 4.0999999999999998e-01 1.0146078058336405e+01 6.5751282835722860e+00 2.4653138888626945e+01 1 1 0