LAMMPS data file via write_data, version 5 Jun 2019, timestep = 3500000

7349 atoms
5 atom types
4899 bonds
2 bond types
2451 angles
2 angle types
1 impropers
1 improper types

1.5519297081455363e-01 4.1845807029189409e+01 xlo xhi
1.5469297081455124e-01 4.1845307029189406e+01 ylo yhi
1.5469297081455124e-01 4.1845307029189406e+01 zlo zhi

#Masses
#
#1 12.01
#2 40.08
#3 1.01
#4 16
#5 16
#
#Bond Coeffs # harmonic
#
#1 20.4246 1.3042
#2 22.965 1.012

Atoms # full

844 282 3 4.0999999999999998e-01 3.5270184160316114e+00 4.3539353661585167e-01 3.6909930475182184e+00 0 -1 -1
2248 750 3 4.0999999999999998e-01 9.2749960498291217e-01 7.4824694777529190e+00 3.9514513882113095e-01 0 1 1
4154 1385 4 -8.1999999999999995e-01 4.3158711657024265e+00 1.0051638753580610e+01 2.1176380513701543e+00 1 0 1
5559 1853 3 4.0999999999999998e-01 2.4765117397344389e+00 3.9887177496674786e+00 1.3596826339097716e+00 1 2 -1
4445 1482 4 -8.1999999999999995e-01 9.5593604533842740e+00 7.4907223704650381e+00 4.9020060454164369e+00 2 0 0
144 48 3 4.0999999999999998e-01 7.5879696277233633e+00 1.4592728534153294e+00 6.8924093298368660e-01 0 3 1
5264 1755 4 -8.1999999999999995e-01 8.2239959704961123e+00 9.6448237597040336e+00 5.8665415965265826e+00 2 3 0
718 240 3 4.0999999999999998e-01 6.4051343718646718e+00 2.8362754063031037e+00 6.8101349275223262e+00 1 0 -1
7318 2440 3 4.0999999999999998e-01 4.6945642637315030e+00 2.8199000163586696e+00 4.0408105245131303e+00 2 0 0
4155 1385 3 4.0999999999999998e-01 5.2167947336112661e+00 1.0543936318017831e+01 2.2947570612701282e+00 1 0 1
846 282 3 4.0999999999999998e-01 3.1546760655829957e+00 1.7854248619060142e+00 2.7097855970761073e+00 0 -1 -1
2113 705 3 4.0999999999999998e-01 1.6428492211729058e+00 1.6629850076897386e+00 1.2338648120619200e+00 0 -1 0
6216 2072 3 4.0999999999999998e-01 7.8914648077748124e+00 4.4149505691705810e+00 5.9364723899567888e+00 -1 1 1
1224 408 3 4.0999999999999998e-01 9.9490981556409466e+00 5.2776515754083748e+00 2.6210511853774068e+00 0 1 -2
35 12 4 -8.1999999999999995e-01 8.8277963238042787e+00 8.3869981367819797e+00 8.4078875486380387e+00 0 3 1
845 282 4 -8.1999999999999995e-01 3.6632393704399560e+00 1.3984261958320761e+00 3.5042566704124418e+00 0 -1 -1
2004 668 3 4.0999999999999998e-01 5.8523377599911131e-01 8.0433149646915574e+00 4.2672298987360957e+00 1 2 1
2848 950 3 4.0999999999999998e-01 7.3394207979509645e+00 5.6212483306334207e+00 3.0535112959244231e+00 1 1 0
6968 2323 4 -8.1999999999999995e-01 6.0555827187675355e+00 1.0005760464771031e+01 9.5022935685677279e+00 1 1 1
1960 654 3 4.0999999999999998e-01 2.8149184607554725e+00 3.4854756043630712e+00 7.5793838150408348e+00 2 0 0
5361 1787 3 4.0999999999999998e-01 3.9303263071044342e-01 1.8643601143276012e+00 6.6512311258745509e+00 1 1 2
387 129 3 4.0999999999999998e-01 8.7203959226121146e+00 1.0564452777451088e+01 3.3230754531334505e-01 0 0 0
143 48 4 -8.1999999999999995e-01 7.9158239741605190e+00 2.4149546676268541e+00 9.8923590067005585e-01 0 3 1
4721 1574 4 -8.1999999999999995e-01 1.0390519667808198e+00 9.4846609494262637e+00 1.0594359625865997e+00 2 0 1
3136 1046 3 4.0999999999999998e-01 3.2824059500792169e+00 9.0905354974758978e+00 4.9430806795957540e+00 1 1 -1
5263 1755 3 4.0999999999999998e-01 8.6690180231491674e+00 1.0557639739611336e+01 5.5964823964293089e+00 2 3 0
36 12 3 4.0999999999999998e-01 8.6193617756848013e+00 8.9939934824381442e+00 7.6466763911871745e+00 0 3 1
5096 1699 4 -8.1999999999999995e-01 8.5533673559146113e+00 2.7967597090440894e+00 3.6950787900953332e+00 0 0 1
5723 1908 4 -8.1999999999999995e-01 2.5561050391275062e+00 7.8422474973762757e+00 4.0935802496541873e+00 0 1 -1
750 250 3 4.0999999999999998e-01 9.3186433482318751e+00 4.3376233290709578e+00 8.1939859061213252e+00 0 2 0
1021 341 3 4.0999999999999998e-01 9.0196758066296667e-01 3.0928937284830345e+00 3.4479004356782035e+00 2 -1 -1
749 250 4 -8.1999999999999995e-01 9.7124422482259423e+00 3.8818200299855166e+00 9.0749699413403668e+00 0 2 0
5722 1908 3 4.0999999999999998e-01 3.2791480420126855e+00 7.0918469087563745e+00 4.3494669359109315e+00 0 1 -1
4446 1482 3 4.0999999999999998e-01 9.2063199079263622e+00 7.1874898666228555e+00 4.0020283510078398e+00 2 0 0
6914 2305 4 -8.1999999999999995e-01 2.3450020833549083e+00 9.9423600735251920e+00 1.0415283871618719e+01 0 2 -1
4105 1369 3 4.0999999999999998e-01 6.8211254324878778e+00 9.6617908787170261e+00 6.3309036108200232e+00 1 2 0
1504 502 3 4.0999999999999998e-01 5.8285898095395252e+00 6.2129413701911149e+00 9.4907415751541002e+00 1 1 -1
719 240 4 -8.1999999999999995e-01 5.7967879783871252e+00 2.0136692349187113e+00 6.9720846094352042e+00 1 0 -1
4042 1348 3 4.0999999999999998e-01 1.0115204312861303e+01 1.0281561944374049e+01 2.6173863790228000e+00 1 2 0
2279 760 4 -8.1999999999999995e-01 4.3829673701393963e+00 6.1607057290498259e+00 4.5857648452601332e+00 1 1 1
5724 1908 3 4.0999999999999998e-01 2.4349540005281196e+00 7.8612565009551920e+00 3.0836734022915633e+00 0 1 -1
2126 709 4 -8.1999999999999995e-01 8.9165704776798407e+00 1.3812172656103963e+00 9.6016429307858644e+00 2 -1 0
7319 2440 4 -8.1999999999999995e-01 5.2474304757325907e+00 3.6734435624893655e+00 3.8874872169695864e+00 2 0 0
4320 1440 3 4.0999999999999998e-01 6.0171937788141143e+00 7.3274205305014828e+00 1.3062670958538052e+00 -1 1 -1
1961 654 4 -8.1999999999999995e-01 3.2936290596549167e+00 2.6187068329178991e+00 7.8271182705040596e+00 2 0 0
7198 2400 3 4.0999999999999998e-01 1.0436188419738784e+01 6.7019668786497641e+00 9.4649266691273777e+00 0 0 1
5557 1853 3 4.0999999999999998e-01 8.7545674320009892e-01 4.1526999778618512e+00 1.3574249430210878e+00 1 2 -1
1507 503 3 4.0999999999999998e-01 3.6547559091631028e+00 5.4320050159144344e+00 6.0906074651600699e+00 0 1 0
3138 1046 3 4.0999999999999998e-01 4.3579660353496754e+00 9.7222593912294570e+00 6.0002131549001021e+00 1 1 -1
142 48 3 4.0999999999999998e-01 8.9382685345873352e+00 2.4453075410455392e+00 9.7520848046433695e-01 0 3 1
2125 709 3 4.0999999999999998e-01 9.2006723198243954e+00 2.4562607366666520e+00 9.4305487911221686e+00 2 -1 0
6155 2052 4 -8.1999999999999995e-01 4.5285671479189675e+00 5.6816442627074908e+00 8.8423880240566906e+00 -1 1 1
2280 760 3 4.0999999999999998e-01 5.1749224731802608e+00 6.4359256605955233e+00 5.1842255167884819e+00 1 1 1
2278 760 3 4.0999999999999998e-01 4.6137746667628985e+00 5.1671436364860268e+00 4.3714959536295268e+00 1 1 1
2152 718 3 4.0999999999999998e-01 2.7477350633706279e+00 1.3433823430811420e+00 5.1166972029140414e+00 -1 -1 -1
5654 1885 4 -8.1999999999999995e-01 4.2852538593677375e-01 6.5606368829566204e+00 1.0360781660227039e+01 1 0 0
5097 1699 3 4.0999999999999998e-01 7.9728847928897215e+00 2.7024212586869307e+00 2.8856567938018172e+00 0 0 1
2850 950 3 4.0999999999999998e-01 8.3699375880085238e+00 4.6456953654804671e+00 3.7284112622979966e+00 1 1 0
6967 2323 3 4.0999999999999998e-01 5.2024191202194734e+00 9.9812400863725301e+00 1.0047331883227761e+01 1 1 1
6156 2052 3 4.0999999999999998e-01 4.5970954601815421e+00 4.8365898485219248e+00 9.3877174469455618e+00 -1 1 1
121 41 3 4.0999999999999998e-01 1.0143834415753487e+01 4.3700783058326094e+00 6.1142495708651676e+00 -1 1 1
6154 2052 3 4.0999999999999998e-01 3.5901202084339694e+00 5.8938724070392192e+00 8.5465551503744894e+00 -1 1 1
618 206 3 4.0999999999999998e-01 2.0719237041589431e+00 8.6475592923662816e+00 7.9061500849913697e+00 0 0 0
7020 2340 3 4.0999999999999998e-01 3.9426413504519497e+00 2.5052621822629133e+00 9.3969501187719882e+00 2 1 -1
1858 620 3 4.0999999999999998e-01 4.9963265254959719e+00 5.7182062577538517e-01 7.6935248947083386e+00 -1 2 1
5095 1699 3 4.0999999999999998e-01 9.3286337598316749e+00 2.0346897955203747e+00 3.7468218774845261e+00 0 0 1
437 146 4 -8.1999999999999995e-01 5.9075492202341051e+00 6.9732371983862773e+00 6.6133782842397375e+00 0 0 4
748 250 3 4.0999999999999998e-01 9.6566757538092602e+00 4.5935568029288580e+00 9.8229575467790475e+00 0 2 0
616 206 3 4.0999999999999998e-01 2.6279412435147878e+00 8.1458525498104226e+00 9.2682339746599887e+00 0 0 0
7019 2340 4 -8.1999999999999995e-01 4.3989361847815136e+00 3.0719570762680393e+00 1.0170345428472402e+01 2 1 -1
6215 2072 4 -8.1999999999999995e-01 6.8293453547394956e+00 4.3585731249054165e+00 5.9959625959220562e+00 -1 1 1
569 190 4 -8.1999999999999995e-01 8.2044658570630968e+00 1.0009427377009871e+01 1.8623475210155589e+00 -2 -2 1
5558 1853 4 -8.1999999999999995e-01 1.5931484095731341e+00 3.5496737058593855e+00 1.7156293884681009e+00 1 2 -1
436 146 3 4.0999999999999998e-01 5.3679923965701475e+00 6.5586190427074902e+00 7.3762234410818186e+00 0 0 4
1962 654 3 4.0999999999999998e-01 2.8166634986054588e+00 1.9314996870182519e+00 7.2338420620842099e+00 2 0 0
7320 2440 3 4.0999999999999998e-01 5.8707092094873792e+00 3.5899499064079419e+00 4.7523855566642581e+00 2 0 0
1023 341 3 4.0999999999999998e-01 3.1812949002980634e-01 4.1773124089762135e+00 4.3776301318414568e+00 2 -1 -1
6097 2033 3 4.0999999999999998e-01 9.1341179161193509e+00 5.2425700365575856e-01 5.2164861096648609e+00 2 1 1
617 206 4 -8.1999999999999995e-01 2.0981143271276195e+00 7.8235614519550118e+00 8.4608186340706819e+00 0 0 0
123 41 3 4.0999999999999998e-01 9.3061246547864869e+00 5.8978065351409104e+00 6.0436334548606556e+00 -1 1 1
4106 1369 4 -8.1999999999999995e-01 5.8560489243052434e+00 9.7183129988266330e+00 6.8054576431506595e+00 1 2 0
2849 950 4 -8.1999999999999995e-01 8.3458295293015770e+00 5.6014247866459757e+00 3.3062034075364957e+00 1 1 0
568 190 3 4.0999999999999998e-01 7.4936984657681771e+00 9.3269002661478169e+00 1.5491359437990289e+00 -2 -2 1
2153 718 4 -8.1999999999999995e-01 1.9400525276108596e+00 1.4113657933835573e+00 5.7258798896883532e+00 -1 -1 -1
2514 838 3 4.0999999999999998e-01 4.7529222781262037e+00 5.6452637086857775e+00 1.9206771131854543e+00 0 -2 1
4107 1369 3 4.0999999999999998e-01 6.1289137759242696e+00 9.7763300770927479e+00 7.7880930260914436e+00 1 2 0
2114 705 4 -8.1999999999999995e-01 1.9165501277992494e+00 6.6154732301021901e-01 1.2078305105317630e+00 0 -1 0
4319 1440 4 -8.1999999999999995e-01 6.0089425244308075e+00 8.3189332566377576e+00 1.1283611734229160e+00 -1 1 -1
1508 503 4 -8.1999999999999995e-01 2.8105302964197088e+00 5.2066441895484994e+00 6.6348187886089534e+00 0 1 0
6214 2072 3 4.0999999999999998e-01 6.4737226517149171e+00 5.2307773773246424e+00 6.3528628632196114e+00 -1 1 1
6969 2323 3 4.0999999999999998e-01 6.8117242031323251e+00 1.0386057782952754e+01 1.0138140241259233e+01 1 1 1
2513 838 4 -8.1999999999999995e-01 5.7344290075892905e+00 5.3292770617178906e+00 1.9867552030034943e+00 0 -2 1
1509 503 3 4.0999999999999998e-01 2.2548641607364059e+00 6.0939974407157376e+00 6.6875711332882517e+00 0 1 0
720 240 3 4.0999999999999998e-01 4.8721557958098654e+00 2.3412906158126567e+00 7.3166319213680637e+00 1 0 -1
34 12 3 4.0999999999999998e-01 9.6224639290687808e+00 7.8479734909517820e+00 8.2161175598138474e+00 0 3 1
438 146 3 4.0999999999999998e-01 5.7440659501356022e+00 7.9966393991910216e+00 6.6396632308394139e+00 0 0 4
122 41 4 -8.1999999999999995e-01 9.3563824925441068e+00 4.9549595966972806e+00 6.4728591222222898e+00 -1 1 1
4720 1574 3 4.0999999999999998e-01 6.6887189585314866e-01 9.8863736356709584e+00 1.9576479453890381e+00 2 0 1
2154 718 3 4.0999999999999998e-01 1.3693451814268247e+00 2.1483479334488025e+00 5.2701386052793575e+00 -1 -1 -1
5655 1885 3 4.0999999999999998e-01 1.1354412110502250e+00 7.0318810170357340e+00 9.7675373407078983e+00 1 0 0
5265 1755 3 4.0999999999999998e-01 8.7495786716785204e+00 8.8487660401706218e+00 5.4493602638726619e+00 2 3 0
1022 341 4 -8.1999999999999995e-01 5.1218504326619341e-01 3.1718762760882036e+00 4.3774493690870324e+00 2 -1 -1
2512 838 3 4.0999999999999998e-01 5.8104571100382909e+00 4.5552886576362042e+00 2.6533123548561632e+00 0 -2 1
4722 1574 3 4.0999999999999998e-01 4.8694207306326831e-01 9.8090447040418898e+00 2.8064149497906005e-01 2 0 1
1506 502 3 4.0999999999999998e-01 7.1802405054489284e+00 7.2759156006250976e+00 9.2996717786905307e+00 1 1 -1
4318 1440 3 4.0999999999999998e-01 5.1682098159112941e+00 8.8384561231185295e+00 1.5027249631045771e+00 -1 1 -1
1505 502 4 -8.1999999999999995e-01 6.6189492241662959e+00 6.7209243373465943e+00 9.9877320802135401e+00 1 1 -1
2127 709 3 4.0999999999999998e-01 9.4193078305163063e+00 9.2626123204480237e-01 1.0321600977896068e+01 2 -1 0
5893 1965 3 4.0999999999999998e-01 7.4697046070001161e+00 1.0114483636631695e+00 6.6713509974797258e+00 -1 0 0
5895 1965 3 4.0999999999999998e-01 8.5264127924365098e+00 5.7013024310414617e-01 7.7960893287424762e+00 -1 0 0
3302 1101 4 -8.1999999999999995e-01 3.2740634997404925e+00 5.1766813292867395e+00 1.9511578106523825e-01 0 -1 1
6098 2033 4 -8.1999999999999995e-01 9.6192307131620431e+00 2.0515552702088280e-01 4.3294865266306397e+00 2 1 1
1675 559 3 4.0999999999999998e-01 9.1470155606111092e+00 9.6942483327615587e+00 9.8951857402170695e+00 2 2 -1
5894 1965 4 -8.1999999999999995e-01 8.3701183721049137e+00 5.3296114978766984e-01 6.7738990467974363e+00 -1 0 0
3137 1046 4 -8.1999999999999995e-01 3.3900250182484433e+00 9.7664098738197271e+00 5.7084493953911881e+00 1 1 -1
6913 2305 3 4.0999999999999998e-01 2.5396547848360291e+00 1.0368769624336153e+01 9.5109462537992204e+00 0 2 -1
4984 1662 3 4.0999999999999998e-01 6.9436551856953237e+00 5.0328408969040090e+00 6.9491708890478254e-01 1 0 0
5575 1859 3 4.0999999999999998e-01 1.0374131379740373e+01 5.6903937226378698e+00 5.9569718691962181e-01 1 0 2
3269 1090 4 -8.1999999999999995e-01 1.0571770180613488e+01 2.1786509931601281e+00 1.2500962988805144e+00 3 0 0
2115 705 3 4.0999999999999998e-01 1.2624683462238031e+00 3.1569683397593629e-01 5.3182970212865932e-01 0 -1 0
7018 2340 3 4.0999999999999998e-01 5.3034009823250701e+00 2.7169572390349042e+00 1.0504004036802014e+01 2 1 -1
570 190 3 4.0999999999999998e-01 7.7623513892817879e+00 1.0486677138837667e+01 2.6338223804513325e+00 -2 -2 1
4395 1465 3 4.0999999999999998e-01 9.2431537131151078e+00 1.0064353853890184e+01 1.7105153524307632e+01 -1 2 0
4206 1402 3 4.0999999999999998e-01 3.0395271461337727e+00 3.8435979934673394e+00 1.6291567741504718e+01 -1 1 1
2666 889 4 -8.1999999999999995e-01 6.7018553568267762e+00 1.3079467436096206e+00 1.9475303342305658e+01 2 0 2
3258 1086 3 4.0999999999999998e-01 5.9845186863130495e+00 5.7431095787791424e+00 1.7022777396936490e+01 0 1 -1
3256 1086 3 4.0999999999999998e-01 5.5167929339104500e+00 4.2142493506881316e+00 1.7102434829355317e+01 0 1 -1
6953 2318 4 -8.1999999999999995e-01 8.7062103640622315e+00 3.5405190265270869e+00 1.3661598176240300e+01 1 1 -1
2527 843 3 4.0999999999999998e-01 4.7254164998755757e+00 6.1919094292091952e+00 1.2703895500782059e+01 0 -1 2
2017 673 3 4.0999999999999998e-01 3.5745228520626644e+00 4.2050161095960464e-01 1.7918346151149450e+01 0 1 -1
391 131 3 4.0999999999999998e-01 6.7599039955034712e+00 1.3846678567642741e+00 1.2238151600126093e+01 -1 0 -1
4205 1402 4 -8.1999999999999995e-01 4.0341973729324501e+00 3.6637948427810785e+00 1.6650021128881228e+01 -1 1 1
4521 1507 3 4.0999999999999998e-01 1.2400812529946279e+00 8.6809778009697283e+00 1.9410630354316879e+01 -2 0 0
2198 733 4 -8.1999999999999995e-01 1.1697798034742877e+00 4.5134569582741051e+00 1.9582322180996144e+01 1 0 1
4373 1458 4 -8.1999999999999995e-01 1.0148099748168326e+01 1.0366238721516275e+01 1.3746930620846243e+01 -2 1 1
2180 727 4 -8.1999999999999995e-01 2.0922249472541918e+00 8.9315785133570902e-01 1.2843993459099554e+01 1 1 -1
555 185 3 4.0999999999999998e-01 7.6560174360094901e+00 8.8528169494443389e+00 1.3626438613674361e+01 0 0 0
557 186 4 -8.1999999999999995e-01 4.2297609394806832e+00 7.7667728975343797e+00 1.9244610760708824e+01 1 1 0
2528 843 4 -8.1999999999999995e-01 4.7609512372943454e+00 6.8482919613097080e+00 1.1975435713969079e+01 0 -1 2
562 188 3 4.0999999999999998e-01 8.5921205745350520e+00 6.8962330864001942e+00 1.0855795871600193e+01 0 0 1
6954 2318 3 4.0999999999999998e-01 9.6602859512138792e+00 3.4122610658420833e+00 1.3880180508350449e+01 1 1 -1
564 188 3 4.0999999999999998e-01 9.9476141569326639e+00 6.3239096055273754e+00 1.1648955965991588e+01 0 0 1
6104 2035 4 -8.1999999999999995e-01 7.4076395779637183e+00 4.7652660024154718e+00 2.0171967418631702e+01 -1 0 0
697 233 3 4.0999999999999998e-01 4.5152902523879810e+00 4.4332776318242075e+00 1.5002454327710948e+01 1 -1 0
2541 847 3 4.0999999999999998e-01 9.4590723111345554e+00 8.0493965763855453e+00 1.5993650889344275e+01 0 3 -1
927 309 3 4.0999999999999998e-01 7.7077197164615656e+00 4.9652883616894048e+00 1.3134794431369238e+01 2 -1 2
1522 508 3 4.0999999999999998e-01 9.5012570717220390e-01 5.8256649172211930e+00 1.3923722991718114e+01 0 -2 1
5653 1885 3 4.0999999999999998e-01 8.9827085292259234e-01 6.0244224900069634e+00 1.1096856621087886e+01 1 0 0
4519 1507 3 4.0999999999999998e-01 2.9437621365207156e+00 8.7333123244932782e+00 1.9489009240110963e+01 -2 0 0
3257 1086 4 -8.1999999999999995e-01 6.2031336364870695e+00 4.8565707988530731e+00 1.7520565769117866e+01 0 1 -1
5192 1731 4 -8.1999999999999995e-01 6.7852430422343035e+00 9.6344345525622088e-01 1.4259947634638458e+01 1 -2 2
4114 1372 3 4.0999999999999998e-01 2.1024660620794872e-01 3.2260351218554031e+00 1.9930082861167772e+01 1 1 0
365 122 4 -8.1999999999999995e-01 2.4487240536351131e+00 6.7465110042967567e+00 1.4634637296742708e+01 -1 0 -1
3591 1197 3 4.0999999999999998e-01 5.2372188310940384e+00 8.0774769813309319e+00 1.6369255722045519e+01 1 0 2
698 233 4 -8.1999999999999995e-01 4.9040422089172102e+00 5.2577783323122551e+00 1.4620196481070350e+01 1 -1 0
1591 531 3 4.0999999999999998e-01 9.6865459606544917e+00 5.0847258693797082e-01 1.8314360323567982e+01 2 2 -1
392 131 4 -8.1999999999999995e-01 6.7190550486058340e+00 2.1126028739127736e+00 1.1488282134664846e+01 -1 0 -1
737 246 4 -8.1999999999999995e-01 1.4083591352184630e+00 4.3713524189330153e+00 1.6547433447445417e+01 1 0 0
3589 1197 3 4.0999999999999998e-01 4.2810727691251680e+00 7.3380291343096244e+00 1.7408565873704131e+01 1 0 2
2441 814 4 -8.1999999999999995e-01 6.7964573257038863e+00 9.5799972457929066e+00 1.4981613027865970e+01 2 1 3
3902 1301 4 -8.1999999999999995e-01 9.3257158787679941e+00 6.3744467870253985e+00 1.9199575789325479e+01 -1 0 1
699 233 3 4.0999999999999998e-01 5.0017981733379262e+00 5.8981482367313909e+00 1.5427688479785429e+01 1 -1 0
736 246 3 4.0999999999999998e-01 1.5136214304139519e+00 4.2537748515986227e+00 1.7534984255299701e+01 1 0 0
3903 1301 3 4.0999999999999998e-01 8.6167372355342433e+00 5.6531495485110987e+00 1.9477448367596740e+01 -1 0 1
5191 1731 3 4.0999999999999998e-01 6.9447453472170695e+00 1.5514453029818427e+00 1.5077776683788439e+01 1 -2 2
2197 733 3 4.0999999999999998e-01 8.6660733456573535e-01 5.1224036848937891e+00 2.0361413454864941e+01 1 0 1
2821 941 3 4.0999999999999998e-01 3.4035546695987011e+00 5.9755806350880434e+00 1.1640001728885707e+01 1 1 2
1676 559 4 -8.1999999999999995e-01 8.8763805476552111e+00 1.0229285199203353e+01 1.0687028410136877e+01 2 2 -1
3590 1197 4 -8.1999999999999995e-01 4.7795154879512580e+00 7.1255486318779377e+00 1.6481871274503558e+01 1 0 2
925 309 3 4.0999999999999998e-01 6.3894635477117756e+00 5.5761689598549671e+00 1.3918380240838550e+01 2 -1 2
2181 727 3 4.0999999999999998e-01 2.7135212035872582e+00 1.2580931225868439e+00 1.2115520361930519e+01 1 1 -1
7057 2353 3 4.0999999999999998e-01 1.1396018039385361e+00 7.6117835466295594e+00 1.6344726798205041e+01 -1 1 -1
4204 1402 3 4.0999999999999998e-01 4.0973966416627778e+00 2.6327442614911538e+00 1.6889391837795817e+01 -1 1 1
4290 1430 3 4.0999999999999998e-01 4.8585500209062733e+00 1.0327721827258033e+01 1.2588634338800347e+01 0 -1 0
5222 1741 4 -8.1999999999999995e-01 2.2670365759637345e+00 9.0273809455229337e+00 1.5792945113170600e+01 1 1 0
2539 847 3 4.0999999999999998e-01 9.6763454925406300e+00 9.3175080324468240e+00 1.5024669142295123e+01 0 3 -1
2823 941 3 4.0999999999999998e-01 3.1937494754187314e+00 4.3120101772182275e+00 1.1111095144444441e+01 1 1 2
4374 1458 3 4.0999999999999998e-01 1.0543384750282218e+01 9.9673169678465072e+00 1.2890908601676719e+01 -2 1 1
926 309 4 -8.1999999999999995e-01 7.2595704408575203e+00 5.8422076594777304e+00 1.3320016585381603e+01 2 -1 2
2019 673 3 4.0999999999999998e-01 4.9601766642188414e+00 1.2239933494439761e+00 1.8271380635712365e+01 0 1 -1
4520 1507 4 -8.1999999999999995e-01 2.0641096216043482e+00 9.2709824266706438e+00 1.9654959191044615e+01 -2 0 0
1677 559 3 4.0999999999999998e-01 8.6324181362677166e+00 9.6289023894581796e+00 1.1430560492240481e+01 2 2 -1
563 188 4 -8.1999999999999995e-01 9.4511176513759203e+00 6.2891382144558046e+00 1.0757232042461597e+01 0 0 1
836 279 4 -8.1999999999999995e-01 7.3868690652286739e+00 2.1683998226300045e+00 1.6998714188096688e+01 1 1 0
5221 1741 3 4.0999999999999998e-01 1.6113553559262943e+00 9.7911816489604782e+00 1.5647955493188659e+01 1 1 0
553 185 3 4.0999999999999998e-01 7.5906286307371236e+00 7.4062438298502178e+00 1.2840127282924774e+01 0 0 0
2529 843 3 4.0999999999999998e-01 5.7078163340222545e+00 6.8911349758505960e+00 1.1546542233715943e+01 0 -1 2
3176 1059 4 -8.1999999999999995e-01 4.8512419934394106e+00 2.7004760695320158e+00 2.0710671427576486e+01 0 2 0
2384 795 4 -8.1999999999999995e-01 4.0958197986904281e+00 5.1696765235269941e+00 1.9444904025046032e+01 0 1 -2
837 279 3 4.0999999999999998e-01 7.6300261046017610e+00 3.1616998400013183e+00 1.6903149737475641e+01 1 1 0
835 279 3 4.0999999999999998e-01 8.1040506872596580e+00 1.4709062171705611e+00 1.6954406449611589e+01 1 1 0
32 11 4 -8.1999999999999995e-01 9.4891087802500849e+00 6.4335112550228226e+00 1.5743163277235682e+01 -1 2 0
5223 1741 3 4.0999999999999998e-01 2.8906962370667633e+00 9.4955760779194538e+00 1.6476462098190250e+01 1 1 0
1971 657 3 4.0999999999999998e-01 6.9415493761734037e+00 9.1990449372649170e+00 2.0369096933160911e+01 1 -1 0
1952 651 4 -8.1999999999999995e-01 8.2234808442824576e+00 1.0403417265527588e+01 2.0278006711649962e+01 -1 0 0
1911 637 3 4.0999999999999998e-01 3.1659079647418507e+00 1.0440045973339988e+01 1.8506021165857430e+01 0 -1 0
6952 2318 3 4.0999999999999998e-01 8.3079260258828427e+00 2.6990763722810298e+00 1.3328747391469527e+01 1 1 -1
6105 2035 3 4.0999999999999998e-01 6.7224812486402508e+00 4.8048920290269415e+00 1.9423227228737421e+01 -1 0 0
4288 1430 3 4.0999999999999998e-01 4.6398255976870635e+00 8.6882122704316362e+00 1.2037317561029962e+01 0 -1 0
33 11 3 4.0999999999999998e-01 1.0301657460308082e+01 5.8751263973196837e+00 1.5992668962062016e+01 -1 2 0
6993 2331 3 4.0999999999999998e-01 2.9043217602383425e-01 2.9316383128160179e+00 1.5012148720358203e+01 0 0 2
2383 795 3 4.0999999999999998e-01 4.6902458106609748e+00 4.8004629490593373e+00 1.8650120643289959e+01 0 1 -2
558 186 3 4.0999999999999998e-01 5.0471328117694449e+00 8.1107812433562110e+00 1.9670566647602101e+01 1 1 0
2540 847 4 -8.1999999999999995e-01 9.3486187891925532e+00 9.0374142720082045e+00 1.6012958369579692e+01 0 3 -1
3544 1182 3 4.0999999999999998e-01 1.0131050657516862e+01 6.7835980779886267e+00 1.3818361860372145e+01 2 -1 1
4289 1430 4 -8.1999999999999995e-01 4.4700266820465719e+00 9.6858421648910209e+00 1.1889466483946576e+01 0 -1 0
2018 673 4 -8.1999999999999995e-01 4.3117372423181024e+00 9.9086361764745878e-01 1.7435886969860693e+01 0 1 -1
366 122 3 4.0999999999999998e-01 3.4108497463066074e+00 6.5647550118648779e+00 1.4437441616987936e+01 -1 0 -1
364 122 3 4.0999999999999998e-01 2.3990335762039727e+00 7.7803334611416908e+00 1.4843673282521083e+01 -1 0 -1
554 185 4 -8.1999999999999995e-01 7.9589085176363197e+00 8.3828114378008554e+00 1.2737410714233425e+01 0 0 0
1970 657 4 -8.1999999999999995e-01 6.3203087504503230e+00 8.4825814720613586e+00 2.0727428106577797e+01 1 -1 0
2199 733 3 4.0999999999999998e-01 2.1453108893982877e+00 4.7985281136028677e+00 1.9560106264941343e+01 1 0 1
556 186 3 4.0999999999999998e-01 4.1485755799100250e+00 6.7009568102063239e+00 1.9354362106118774e+01 1 1 0
2442 814 3 4.0999999999999998e-01 7.6301191987237367e+00 9.5653761177698904e+00 1.5506147220543065e+01 2 1 3
738 246 3 4.0999999999999998e-01 9.8129068794800767e-01 5.2711113054901340e+00 1.6395926336005473e+01 1 0 0
2665 889 3 4.0999999999999998e-01 6.9467882271758103e+00 1.6118344859983089e+00 1.8489912154518521e+01 2 0 2
3175 1059 3 4.0999999999999998e-01 5.7456679809070907e+00 2.1939353432146560e+00 2.0405077872583146e+01 0 2 0
7058 2353 4 -8.1999999999999995e-01 2.7473617677156520e-01 7.1249490435883471e+00 1.6678482482775092e+01 -1 1 -1
1910 637 4 -8.1999999999999995e-01 3.7745641480222116e+00 1.0428713517160768e+01 1.7705313238871689e+01 0 -1 0
2385 795 3 4.0999999999999998e-01 4.2340820338327259e+00 4.4941014869068638e+00 2.0202722124974070e+01 0 1 -2
3901 1301 3 4.0999999999999998e-01 8.8906748643632216e+00 7.0609973427455914e+00 1.8547294465697924e+01 -1 0 1
2822 941 4 -8.1999999999999995e-01 2.7438053952001171e+00 5.1103155191606904e+00 1.1592760316221241e+01 1 1 2
5193 1731 3 4.0999999999999998e-01 6.0945711142574321e+00 2.5251777937591657e-01 1.4610225445967451e+01 1 -2 2
1523 508 4 -8.1999999999999995e-01 5.2271616166534285e-01 5.1846695931124644e+00 1.3205040327855496e+01 0 -2 1
31 11 3 4.0999999999999998e-01 8.8913762094792439e+00 5.5884805787335745e+00 1.5543851149359305e+01 -1 2 0
1953 651 3 4.0999999999999998e-01 8.7830882679246773e+00 1.0494007827204639e+01 1.9466160052553331e+01 -1 0 0
6915 2305 3 4.0999999999999998e-01 3.1464671219838993e+00 9.9754487908788363e+00 1.1129477244325113e+01 0 2 -1
3427 1143 3 4.0999999999999998e-01 3.7311330224170597e-01 8.1727049792752249e-01 1.1913360148270847e+01 2 1 -1
1524 508 3 4.0999999999999998e-01 1.3236226654130832e+00 5.0337453376727286e+00 1.2506461249334057e+01 0 -2 1
2667 889 3 4.0999999999999998e-01 6.2653071753524232e+00 3.5632237350703999e-01 1.9465490848540462e+01 2 0 2
956 319 4 -8.1999999999999995e-01 1.0524276126490465e+01 3.3687222677569229e-01 1.1340634373876028e+01 1 -1 1
393 131 3 4.0999999999999998e-01 7.5384433046673509e+00 2.1158015166040127e+00 1.0788317608183620e+01 -1 0 -1
3361 1121 3 4.0999999999999998e-01 1.0033661281620152e+01 4.1349431884999204e+00 1.7805992566015323e+01 0 -2 -1
3177 1059 3 4.0999999999999998e-01 4.1754614022390424e+00 1.9305921842021005e+00 2.0909785098294339e+01 0 2 0
1282 428 3 4.0999999999999998e-01 7.7484887808179046e+00 7.5522751290155898e-01 2.0959077960962780e+01 -2 0 -1
2440 814 3 4.0999999999999998e-01 6.7072258405982463e+00 1.0558448508897937e+01 1.4707321734039192e+01 2 1 3
2363 788 4 -8.1999999999999995e-01 1.3743772540048906e+00 4.4605390348848424e+00 2.6679474341352336e+01 1 0 0
4324 1442 3 4.0999999999999998e-01 9.7979575565190680e-01 4.3611740279564515e+00 2.3338530632917909e+01 0 1 -1
1789 597 3 4.0999999999999998e-01 5.9004358789004687e+00 1.0179551700414933e+01 2.3856266886721158e+01 1 -1 0
4525 1509 3 4.0999999999999998e-01 9.9218414818533418e+00 7.4827974158795802e+00 2.8508842224493648e+01 1 1 -1
6552 2184 3 4.0999999999999998e-01 7.1932661032745768e+00 8.8292885172983624e+00 2.4781780006532895e+01 0 0 -1
2189 730 4 -8.1999999999999995e-01 4.1266140958454676e+00 4.7178235777782733e+00 2.2636862470938745e+01 1 2 1
6103 2035 3 4.0999999999999998e-01 6.9347233613036439e+00 5.1725418710549418e+00 2.1003565681976458e+01 -1 0 0
4865 1622 4 -8.1999999999999995e-01 3.1468384450593323e+00 7.6358752138077683e+00 2.3439918694255418e+01 2 1 1
1604 535 4 -8.1999999999999995e-01 1.2419726277790821e+00 2.9344966627407896e+00 2.9521233150879354e+01 2 2 -1
6021 2007 3 4.0999999999999998e-01 8.4643629171639994e+00 2.3952046650996652e+00 2.2138364118487633e+01 0 0 0
7283 2428 4 -8.1999999999999995e-01 2.9164325357427443e+00 6.6168476730846351e+00 2.6152241951165198e+01 0 0 -2
1888 630 3 4.0999999999999998e-01 1.5093337594113918e+00 1.5086685624809069e+00 2.4387323242105708e+01 1 2 -2
1374 458 3 4.0999999999999998e-01 8.2694112888336981e+00 5.5271486030204890e+00 2.9757906153645827e+01 0 0 2
1478 493 4 -8.1999999999999995e-01 1.8386742135658887e+00 1.0306700105698491e+01 2.7918131999446580e+01 1 1 1
1958 653 4 -8.1999999999999995e-01 4.8840495323760802e+00 5.3262781933088410e-01 2.8791486212288483e+01 1 2 1
1919 640 4 -8.1999999999999995e-01 4.9126635620479426e+00 9.5732160084084317e+00 2.2818724993714433e+01 0 -1 -3
2431 811 3 4.0999999999999998e-01 6.4423984299032950e+00 4.8217737872972473e+00 2.6829646443731932e+01 -1 -1 0
6020 2007 4 -8.1999999999999995e-01 8.4113316925860531e+00 3.4244610485362967e+00 2.2190868734186687e+01 0 0 0
1969 657 3 4.0999999999999998e-01 5.9670357196012791e+00 8.9315852647140890e+00 2.1624589987652378e+01 1 -1 0
2364 788 3 4.0999999999999998e-01 1.9591019492745321e+00 3.6850422705451216e+00 2.6925570134918136e+01 1 0 0
4527 1509 3 4.0999999999999998e-01 9.8267972832413211e+00 8.0567892009550519e+00 2.6991497591281739e+01 1 1 -1
2710 904 3 4.0999999999999998e-01 4.8651237918120245e+00 4.0764399440316490e+00 2.9955870760938563e+01 0 0 1
4333 1445 3 4.0999999999999998e-01 7.6279287559214657e+00 3.5181941516403383e+00 2.3499820267816894e+01 1 -2 -1
2711 904 4 -8.1999999999999995e-01 4.7401954147068563e+00 5.1200025680953312e+00 3.0077306970042329e+01 0 0 1
4146 1382 3 4.0999999999999998e-01 8.6275562778499264e+00 3.1216053383085218e+00 3.1114054498500536e+01 -1 1 -1
1372 458 3 4.0999999999999998e-01 7.1435019601948051e+00 6.6599322393996614e+00 3.0152566727955953e+01 0 0 2
1525 509 3 4.0999999999999998e-01 1.0429560472385813e+01 7.5961245249643561e-01 2.8140575955848579e+01 2 1 -1
1281 427 3 4.0999999999999998e-01 8.5352333336994963e+00 5.1786200640892961e+00 2.6951129291584490e+01 0 3 -1
6551 2184 4 -8.1999999999999995e-01 7.6947309294503237e+00 7.9391513436108880e+00 2.4630747653053692e+01 0 0 -1
1850 617 4 -8.1999999999999995e-01 2.9310346936799121e+00 2.1432923552667837e+00 2.7478850269315323e+01 1 1 2
5650 1884 3 4.0999999999999998e-01 8.5312977496440876e+00 2.3845220026360061e+00 2.8953808542245497e+01 0 -1 -1
1890 630 3 4.0999999999999998e-01 1.7719540667734799e+00 2.1251909720034745e+00 2.2963714511697518e+01 1 2 -2