LAMMPS data file via write_data, version 5 Jun 2019, timestep = 19500000

7349 atoms
5 atom types
4899 bonds
2 bond types
2451 angles
2 angle types
1 impropers
1 improper types

1.5519297081455363e-01 4.1845807029189409e+01 xlo xhi
1.5469297081455124e-01 4.1845307029189406e+01 ylo yhi
1.5469297081455124e-01 4.1845307029189406e+01 zlo zhi

#Masses
#
#1 12.01
#2 40.08
#3 1.01
#4 16
#5 16
#
#Bond Coeffs # harmonic
#
#1 20.4246 1.3042
#2 22.965 1.012

Atoms # full

6920 2307 4 -8.1999999999999995e-01 4.4477219968227910e+00 6.0301632465205290e-01 6.5418821289365585e+00 1 1 0
6038 2013 4 -8.1999999999999995e-01 8.6577982163760892e-01 2.4736572415710198e+00 9.3742478699345810e-01 3 -2 0
4192 1398 3 4.0999999999999998e-01 7.4307776435553814e+00 8.2471565408452534e+00 6.7989118148843799e+00 -1 1 -4
5199 1733 3 4.0999999999999998e-01 8.6478794954743083e+00 8.6472057533179232e+00 5.3809913888380090e-01 0 -3 2
5426 1809 4 -8.1999999999999995e-01 6.5898545758989879e+00 3.4492346315286588e+00 4.0929671653594435e-01 -1 -1 0
6193 2065 3 4.0999999999999998e-01 6.3088151341763226e+00 2.4393607510097253e+00 4.9554906217903731e+00 2 0 3
2197 733 3 4.0999999999999998e-01 4.3296772014752474e+00 1.2933090081450220e+00 4.1833344639804387e-01 -3 -1 4
6840 2280 3 4.0999999999999998e-01 5.2321387443250362e+00 5.8117722784990216e+00 5.9319745258334784e+00 -3 0 -4
3939 1313 3 4.0999999999999998e-01 6.4989258098205118e+00 5.7589523530792928e+00 8.0809636902214130e+00 -1 2 0
5425 1809 3 4.0999999999999998e-01 6.6048387692681718e+00 3.6154333782200996e+00 1.4072863976153829e+00 -1 -1 0
4194 1398 3 4.0999999999999998e-01 9.0144753405242479e+00 7.8861174540643715e+00 6.4595345586258057e+00 -1 1 -4
6416 2139 4 -8.1999999999999995e-01 3.2671422789518716e+00 5.5002029941962594e-01 1.0545814842783663e+01 3 -4 0
2021 674 4 -8.1999999999999995e-01 9.7681181197754050e+00 3.3130896599972379e+00 7.0036345379237952e+00 1 3 2
4 2 3 4.0999999999999998e-01 9.0662819312576346e+00 7.1471850415669964e+00 4.7649651409842733e+00 -2 1 4
1885 629 3 4.0999999999999998e-01 1.0277671356041141e+01 5.4136128809519315e+00 4.5139581641739817e+00 1 8 0
6037 2013 3 4.0999999999999998e-01 3.8110751994420927e-01 1.7663286000474654e+00 1.5392282092675940e+00 3 -2 0
6229 2077 3 4.0999999999999998e-01 3.6180348642273903e+00 3.1654693556820166e+00 9.9359592203709268e-01 -2 2 -1
6230 2077 4 -8.1999999999999995e-01 3.6779039650232099e+00 3.8512422366753563e+00 1.7882086279397775e+00 -2 2 -1
4161 1387 3 4.0999999999999998e-01 2.6583666215223245e-01 4.7665916437774571e+00 3.3871354513593053e+00 4 4 -1
6718 2240 3 4.0999999999999998e-01 4.0184591428258152e+00 8.2185128006700605e+00 6.2753297746242112e+00 2 -1 3
4343 1448 4 -8.1999999999999995e-01 2.6914616582404109e+00 7.2399747696880272e+00 2.3764399435409134e+00 4 0 -6
3329 1110 4 -8.1999999999999995e-01 6.6357461939746996e+00 8.7882108226212967e+00 8.3194057885995960e+00 -1 -1 4
3977 1326 4 -8.1999999999999995e-01 7.0092970687338969e+00 2.5659924000092662e+00 6.5081286649565380e+00 1 -2 -1
4193 1398 4 -8.1999999999999995e-01 8.1395984324271051e+00 8.1820880076073426e+00 6.0437038087810615e+00 -1 1 -4
1263 421 3 4.0999999999999998e-01 2.8154984398842084e+00 8.8656740183328981e+00 1.0576977015341740e+01 -1 0 0
4603 1535 3 4.0999999999999998e-01 1.7553491364836304e-01 1.0136004762177437e+01 2.1462667285734414e+00 3 0 3
6034 2012 3 4.0999999999999998e-01 2.7591932765383831e+00 4.5787362985550345e-01 6.0553390826888212e+00 0 2 0
27 9 3 4.0999999999999998e-01 9.0703520983538297e+00 5.9006760984134321e-01 5.2661950642770416e-01 0 0 0
5350 1784 3 4.0999999999999998e-01 3.3554768704367914e+00 2.1898362655525285e+00 9.0731145123346426e+00 1 3 0
6 2 3 4.0999999999999998e-01 9.7894250911083560e+00 7.2004766881213627e+00 3.2899062127863452e+00 -2 1 4
4411 1471 3 4.0999999999999998e-01 3.3285074319222824e-01 5.4944069870093726e+00 5.7419949716832273e+00 3 3 -1
4240 1414 3 4.0999999999999998e-01 1.2420941591219115e+00 9.2428864513851803e+00 3.9516298180667504e+00 0 8 1
6919 2307 3 4.0999999999999998e-01 4.8681084770820577e+00 1.4345259079620054e+00 6.9992490247259322e+00 1 1 0
4160 1387 4 -8.1999999999999995e-01 6.4371818655808588e-01 5.0723000326605465e+00 2.4807382502632453e+00 4 4 -1
3976 1326 3 4.0999999999999998e-01 7.9942037165079771e+00 2.3408552000272289e+00 6.6368344391395349e+00 1 -2 -1
6608 2203 4 -8.1999999999999995e-01 6.0001092631830808e+00 6.2986566867707239e-01 1.0555817898072270e+01 -1 -2 -3
5917 1973 3 4.0999999999999998e-01 6.3381902783454960e+00 3.9691262882726908e+00 3.6012880595852415e+00 1 1 4
4241 1414 4 -8.1999999999999995e-01 2.2763227960118475e+00 9.3382313249271505e+00 4.0052517577993472e+00 0 8 1
6838 2280 3 4.0999999999999998e-01 3.7715756092970572e+00 6.0848360698212183e+00 5.1161945378868001e+00 -3 0 -4
5919 1973 3 4.0999999999999998e-01 7.2009777756527491e+00 5.4273473032163126e+00 3.6182068048045477e+00 1 1 4
1261 421 3 4.0999999999999998e-01 1.3063424056352557e+00 8.3585578697404088e+00 9.7976365659818754e+00 -1 0 0
4046 1349 4 -8.1999999999999995e-01 4.4007777552763603e+00 6.6936557545413908e+00 8.9767991023854865e+00 2 0 -4
1305 435 3 4.0999999999999998e-01 4.0465757139076981e+00 3.3307846017890190e+00 4.6180846835676261e+00 3 -5 -1
5918 1973 4 -8.1999999999999995e-01 6.6515714270343995e+00 4.7948543675905162e+00 3.0390160558628696e+00 1 1 4
1304 435 4 -8.1999999999999995e-01 3.1874787209150224e+00 3.7884163847506573e+00 4.4278875722040851e+00 3 -5 -1
6035 2012 4 -8.1999999999999995e-01 1.7307716746882238e+00 3.3384579572640716e-01 5.9451714582881339e+00 0 2 0
6839 2280 4 -8.1999999999999995e-01 4.4535432668123587e+00 6.4917889095893075e+00 5.7576936938229517e+00 -3 0 -4
6195 2065 3 4.0999999999999998e-01 5.5177341333726702e+00 1.5669643153270394e+00 3.8345675592113895e+00 2 0 3
2198 733 4 -8.1999999999999995e-01 3.3368088630266382e+00 1.3604901811910373e+00 6.5247354639172750e-01 -3 -1 4
3328 1110 3 4.0999999999999998e-01 6.1816088687189250e+00 9.5189231368282599e+00 7.7411952276432414e+00 -1 -1 4
5198 1733 4 -8.1999999999999995e-01 8.3714817875861574e+00 9.6695477438908863e+00 4.3615123708213049e-01 0 -3 2
3786 1262 3 4.0999999999999998e-01 4.3611861369980538e+00 7.5074214298685149e+00 2.5609989854475859e+00 2 1 1
4686 1562 3 4.0999999999999998e-01 4.6123790713655444e+00 1.0390677642846477e+01 1.9634570964389320e+00 0 -2 2
3784 1262 3 4.0999999999999998e-01 5.5735018036647128e+00 6.3879429985140366e+00 2.4009249286016239e+00 2 1 1
6719 2240 4 -8.1999999999999995e-01 3.3688875893443444e+00 8.9640470894463800e+00 6.4576739920071518e+00 2 -1 3
25 9 3 4.0999999999999998e-01 8.4916915428912318e+00 4.9593169109520163e-01 2.0696323505736265e+00 0 0 0
827 276 4 -8.1999999999999995e-01 8.7404378378803500e+00 4.7700475155680637e+00 9.4857172106934584e+00 3 0 -1
3330 1110 3 4.0999999999999998e-01 6.8040900572926342e+00 9.1784182099945664e+00 9.2620377248544212e+00 -1 -1 4
4047 1349 3 4.0999999999999998e-01 3.5084582706697316e+00 7.1152388297702034e+00 9.2076561770096834e+00 2 0 -4
3268 1090 3 4.0999999999999998e-01 1.0258463328108450e+01 2.4203119469399907e+00 1.0360343206729791e+01 4 -1 -4
3978 1326 3 4.0999999999999998e-01 6.7291515862455977e+00 3.4830888950884784e+00 6.9589292207675415e+00 1 -2 -1
6805 2269 3 4.0999999999999998e-01 3.3504876778996433e+00 5.5363925852689766e+00 1.0037095908970453e+01 1 -1 1
5697 1899 3 4.0999999999999998e-01 4.3623117601861621e+00 1.0489314491917826e+01 7.0270926418060276e+00 -3 2 0
3938 1313 4 -8.1999999999999995e-01 6.7741060266062902e+00 5.3929904798193355e+00 7.1878858705755473e+00 -1 2 0
3937 1313 3 4.0999999999999998e-01 7.6143325204769789e+00 5.8515860572336571e+00 6.8948310306442151e+00 -1 2 0
16 6 3 4.0999999999999998e-01 8.3791789388556452e+00 6.6513411620142113e+00 1.5417696776795773e+00 -2 0 -2
5113 1705 3 4.0999999999999998e-01 1.8380629574337484e+00 1.1721972247038128e+00 7.9602572327046719e+00 3 -1 -1
6231 2077 3 4.0999999999999998e-01 4.6282483347343000e+00 4.0799684612446443e+00 2.0200358913957857e+00 -2 2 -1
5351 1784 4 -8.1999999999999995e-01 4.0942596797516364e+00 2.8481314724144755e+00 8.8874117263846859e+00 1 3 0
5764 1922 3 4.0999999999999998e-01 1.3703814541841386e+00 5.2289349566773220e+00 9.0450458373571774e+00 1 -3 1
826 276 3 4.0999999999999998e-01 9.6692353173470451e+00 5.1360177860094618e+00 9.2998732468445819e+00 3 0 -1
5352 1784 3 4.0999999999999998e-01 3.7368749495183207e+00 3.3892497984255190e+00 8.0787765705953252e+00 1 3 0
5765 1922 4 -8.1999999999999995e-01 6.0907041459655564e-01 5.1310978652798340e+00 8.3550802996779705e+00 1 -3 1
6775 2259 3 4.0999999999999998e-01 1.8219063251622589e+00 4.0980748710987065e+00 7.3396608319671861e+00 3 1 0
4699 1567 3 4.0999999999999998e-01 8.0192921079447235e+00 1.0788651706695471e+00 9.1528298005061473e+00 0 -4 1
6806 2269 4 -8.1999999999999995e-01 2.3496303110275298e+00 5.4793141441998570e+00 1.0334767639596739e+01 1 -1 1
5 2 4 -8.1999999999999995e-01 9.2041201415945952e+00 6.5946092395364007e+00 3.9288266918579549e+00 -2 1 4
17 6 4 -8.1999999999999995e-01 8.6467300942049299e+00 7.1066980467403127e+00 6.7950178871630296e-01 -2 0 -2
6777 2259 3 4.0999999999999998e-01 2.7874661006695698e+00 3.9729864688867296e+00 5.9658330679851517e+00 3 1 0
2311 771 3 4.0999999999999998e-01 6.7734712003977062e+00 5.0784577137253628e-01 4.5935866282877208e-01 -3 1 1
5114 1705 4 -8.1999999999999995e-01 1.4896384060194798e+00 1.3117381180341461e+00 8.9031784771669251e+00 3 -1 -1
1303 435 3 4.0999999999999998e-01 3.2622944506555518e+00 4.0351323091847187e+00 3.4181424178329474e+00 3 -5 -1
2022 674 3 4.0999999999999998e-01 9.9842858142312902e+00 3.9134211094659341e+00 6.1928227309302937e+00 1 3 2
2199 733 3 4.0999999999999998e-01 3.0952788110075491e+00 6.0866255316189644e-01 1.3332844311903627e+00 -3 -1 4
6776 2259 4 -8.1999999999999995e-01 2.7641859282525534e+00 3.8591551890419815e+00 7.0307442442156853e+00 3 1 0
6194 2065 4 -8.1999999999999995e-01 5.7272998932033792e+00 2.5532553836327425e+00 4.1400742368957637e+00 2 0 3
26 9 4 -8.1999999999999995e-01 8.3273188619950957e+00 2.1834982571056152e-01 1.0961110991368894e+00 0 0 0
1681 561 3 4.0999999999999998e-01 1.0231928034750194e+01 2.0260802927700139e+00 2.9584752608353360e+00 -2 6 -3
5044 1682 3 4.0999999999999998e-01 1.8163746887164375e-01 7.8475398547596784e+00 6.0415106419554760e+00 -3 -3 3
6039 2013 3 4.0999999999999998e-01 1.8260477401759261e+00 2.0569694359996578e+00 8.0594859672266950e-01 3 -2 0
5115 1705 3 4.0999999999999998e-01 2.0953562060990096e+00 9.9602001714742783e-01 9.6997253070767986e+00 3 -1 -1
3033 1011 3 4.0999999999999998e-01 7.7921439669422794e+00 9.8330756266030797e+00 5.2035690386378421e+00 4 3 -4
4045 1349 3 4.0999999999999998e-01 4.8556367065403041e+00 7.2634472720571175e+00 8.2900311310057138e+00 2 0 -4
4122 1374 3 4.0999999999999998e-01 1.0338657828108788e+01 9.6969101099595107e+00 1.5199072741080966e+00 1 -1 -3
2017 673 3 4.0999999999999998e-01 5.2270159475251070e+00 7.9851250669311229e+00 6.5438317151312531e-01 2 0 -5
4344 1448 3 4.0999999999999998e-01 2.0388528222816440e+00 6.5890782120249778e+00 2.6650630813284630e+00 4 0 -6
5046 1682 3 4.0999999999999998e-01 1.7689550506988956e+00 7.4726521109323674e+00 6.5751506347926485e+00 -3 -3 3
4342 1448 3 4.0999999999999998e-01 2.6726636831508217e+00 8.1261600870978050e+00 2.9334126617386138e+00 4 0 -6
6720 2240 3 4.0999999999999998e-01 2.8564970516955892e+00 9.1613930533130485e+00 5.5349476202146199e+00 2 -1 3
1682 561 4 -8.1999999999999995e-01 9.7816969805191007e+00 1.1825702252752881e+00 3.3082132287355051e+00 -2 6 -3
828 276 3 4.0999999999999998e-01 8.6189548071245099e+00 3.9194823942641026e+00 8.9307343082749160e+00 3 0 -1
6602 2201 4 -8.1999999999999995e-01 1.0456732838159814e+01 6.7273576517480809e+00 6.6449372334095420e+00 -3 -1 1
4700 1567 4 -8.1999999999999995e-01 8.8186842963304244e+00 1.7200076903957096e+00 9.0665849934729934e+00 0 -4 1
3411 1137 3 4.0999999999999998e-01 6.5545572647769124e+00 8.7225801532939791e+00 2.4556732368077956e+00 -1 2 -2
18 6 3 4.0999999999999998e-01 9.6971481291387800e+00 6.9416851593777604e+00 5.5475442910231332e-01 -2 0 -2
3409 1137 3 4.0999999999999998e-01 7.5106262415609182e+00 9.9403972165523466e+00 1.8098608757999277e+00 -1 2 -2
1683 561 3 4.0999999999999998e-01 1.0473837374377327e+01 4.0129034470108144e-01 3.5870021047952418e+00 -2 6 -3
1262 421 4 -8.1999999999999995e-01 2.2095706498309382e+00 8.0840278454198842e+00 1.0337879461183624e+01 -1 0 0
4701 1567 3 4.0999999999999998e-01 8.8918480191078491e+00 2.1479075824479565e+00 8.1078322098758431e+00 0 -4 1
7285 2429 3 4.0999999999999998e-01 3.6474483798114599e-01 1.8401733331772558e+00 5.8344431929072469e+00 0 3 3
841 281 3 4.0999999999999998e-01 5.7054580025896433e+00 6.5808566502886467e+00 1.0250566991812807e+01 1 3 -3
3410 1137 4 -8.1999999999999995e-01 6.8563725813604002e+00 9.6921126562250226e+00 2.5031379523847552e+00 -1 2 -2
694 232 3 4.0999999999999998e-01 1.0121298507289699e+01 1.0242743097245881e+00 8.8213585435161157e+00 -3 -2 0
5045 1682 4 -8.1999999999999995e-01 7.7521534439292883e-01 7.1562851688631701e+00 6.5750693660806396e+00 -3 -3 3
2502 834 3 4.0999999999999998e-01 8.8307072369101274e+00 6.5038206735527417e+00 1.0352962969925368e+01 -8 3 -1
6366 2122 3 4.0999999999999998e-01 8.8880990063253194e+00 9.8111629181416102e+00 9.0351282021975550e+00 0 0 2
3785 1262 4 -8.1999999999999995e-01 5.3636388109771431e+00 7.3836984757706539e+00 2.3849054856237157e+00 2 1 1
4159 1387 3 4.0999999999999998e-01 8.1786754815455054e-01 4.2648894317745922e+00 1.8398944575170377e+00 4 4 -1
6365 2122 4 -8.1999999999999995e-01 8.7991885050509513e+00 9.6784423058454276e+00 1.0069549284896173e+01 0 0 2
5766 1922 3 4.0999999999999998e-01 5.8809835206594885e-01 6.0557054063771849e+00 7.7991985039960898e+00 1 -3 1
4200 1400 3 4.0999999999999998e-01 5.3046076218884890e+00 3.2150752131141074e+00 1.0048394029759674e+01 -2 -3 2
6417 2139 3 4.0999999999999998e-01 4.2626928288854815e+00 7.1481326398654310e-01 1.0271153434286246e+01 3 -4 0
4242 1414 3 4.0999999999999998e-01 2.5544883674334193e+00 1.0077295580231876e+01 3.3380582106894403e+00 0 8 1
3477 1159 3 4.0999999999999998e-01 1.0489745323664561e+01 1.0233340646265264e+01 6.2934433196571087e+00 4 0 -3
6364 2122 3 4.0999999999999998e-01 8.4947940551873149e+00 1.0560137799055486e+01 1.0492980353952703e+01 0 0 2
6609 2203 3 4.0999999999999998e-01 6.2485086177361460e+00 1.6389100308892119e+00 1.0577077395460442e+01 -1 -2 -3
5427 1809 3 4.0999999999999998e-01 6.3795740273894719e+00 2.4343209592781991e+00 2.0776863049820804e-01 -1 -1 0
4536 1512 3 4.0999999999999998e-01 6.9269558120609966e+00 1.0102228562646092e+01 1.4344655072558943e+01 3 2 2
4328 1443 4 -8.1999999999999995e-01 1.2046940216335547e+00 3.9975393557024170e+00 1.2535219628880141e+01 -6 2 -1
4329 1443 3 4.0999999999999998e-01 1.7334167420462139e+00 4.4937319358907644e+00 1.1768747569223986e+01 -6 2 -1
356 119 4 -8.1999999999999995e-01 4.2984677700017899e+00 6.7024999058612247e+00 1.3492744207254468e+01 -1 1 4
4382 1461 4 -8.1999999999999995e-01 8.1113758188173080e+00 2.0458283806264106e+00 1.8560003671243706e+01 2 0 3
6967 2323 3 4.0999999999999998e-01 9.2472367779914109e+00 8.9458186253818059e+00 1.4626908856017589e+01 -2 -3 2
1694 565 4 -8.1999999999999995e-01 4.4599904313348491e+00 4.2257808541413890e+00 2.0082016957108600e+01 0 0 6
5501 1834 4 -8.1999999999999995e-01 8.4620526345782530e+00 6.6502403702628443e-01 1.4757973716888882e+01 -1 -3 1
1811 604 4 -8.1999999999999995e-01 7.9126812071506878e+00 7.7437404618341885e+00 1.3850364539615597e+01 5 4 5
2738 913 4 -8.1999999999999995e-01 2.2150418913349257e+00 7.3693753658613845e+00 1.9195720597189748e+01 2 0 1
1836 612 3 4.0999999999999998e-01 3.3702872687133154e+00 5.7169369795345384e+00 1.6538212595324254e+01 -2 -1 3
4606 1536 3 4.0999999999999998e-01 8.3308694009465469e+00 4.7012910976431144e+00 1.1489143986969145e+01 -2 1 3
355 119 3 4.0999999999999998e-01 4.9586455059589492e+00 6.3035133544543953e+00 1.4192591907705486e+01 -1 1 4
2093 698 4 -8.1999999999999995e-01 4.8703039283585786e-01 1.1929765445115534e+00 1.2311740276351616e+01 1 0 0
6415 2139 3 4.0999999999999998e-01 3.0893960993509388e+00 5.8161727722994250e-01 1.1609947934145982e+01 3 -4 0
6807 2269 3 4.0999999999999998e-01 2.1127942197379572e+00 6.4985791529842150e+00 1.0585114041911144e+01 1 -1 1
2514 838 3 4.0999999999999998e-01 1.6364575603439595e+00 4.1966476684470173e+00 1.5960788595899778e+01 -2 2 0
2969 990 4 -8.1999999999999995e-01 5.3960221965409954e+00 1.9344305247111548e+00 1.8886365498606008e+01 0 -2 0
3274 1092 3 4.0999999999999998e-01 1.8943279711464422e+00 1.0649608517041600e+00 1.3030904275843989e+01 2 4 0
4199 1400 4 -8.1999999999999995e-01 6.0437781525751078e+00 3.4193501492470513e+00 1.0760594665812018e+01 -2 -3 2
6992 2331 4 -8.1999999999999995e-01 2.3145073560525975e+00 5.3521895215649362e+00 1.4678298124325007e+01 3 -2 0
998 333 4 -8.1999999999999995e-01 2.9282603100853781e+00 1.3729222241666597e+00 1.5741594353453822e+01 1 3 -3
1835 612 4 -8.1999999999999995e-01 3.5644990147436415e+00 5.6515489972588187e+00 1.7555494958830671e+01 -2 -1 3
7231 2411 3 4.0999999999999998e-01 2.4756804808800656e+00 9.1026226164695512e+00 1.5247534159354814e+01 1 3 -1
3623 1208 4 -8.1999999999999995e-01 6.1234993580790968e+00 5.5882619377603406e+00 1.4949134160015301e+01 -3 -4 -1
2361 787 3 4.0999999999999998e-01 4.1686361968266112e+00 2.3232030121697700e+00 1.6188028595044951e+01 -4 -2 0
2513 838 4 -8.1999999999999995e-01 1.4241975155173006e+00 3.4222368342878124e+00 1.6568363895452322e+01 -2 2 0
3195 1065 3 4.0999999999999998e-01 1.7716745187635116e-01 6.9776171155446285e+00 1.3447249136072568e+01 1 3 2
6991 2331 3 4.0999999999999998e-01 1.8060728848594307e+00 4.6428297777080214e+00 1.4023209006048162e+01 3 -2 0
2359 787 3 4.0999999999999998e-01 4.9515424999251598e+00 2.8796506474676540e+00 1.7512338712665425e+01 -4 -2 0
4869 1623 3 4.0999999999999998e-01 3.1967561984352186e+00 1.0408179992293890e+01 2.0068983138065409e+01 0 2 -2
3606 1202 3 4.0999999999999998e-01 4.0341412584012000e+00 8.2198606955101852e+00 1.3806168303015610e+01 2 3 -3
7232 2411 4 -8.1999999999999995e-01 2.1015649028633225e+00 9.5687120592538299e+00 1.6122493932295040e+01 1 3 -1
4129 1377 3 4.0999999999999998e-01 1.1319933590287532e+00 2.5375327363547786e+00 1.9362890455517157e+01 0 -1 3
3643 1215 3 4.0999999999999998e-01 1.0279034366806245e+01 1.3340627198546513e+00 1.2038052205608457e+01 2 0 6
997 333 3 4.0999999999999998e-01 2.2591878673917494e+00 5.6958994179731059e-01 1.5930177935743341e+01 1 3 -3
3219 1073 3 4.0999999999999998e-01 7.8583532072276752e+00 4.8223518259639162e+00 1.6975870528504263e+01 -3 2 3
779 260 4 -8.1999999999999995e-01 7.1492733294180830e+00 8.9086001937700132e+00 1.9295059054387512e+01 3 2 2
262 88 3 4.0999999999999998e-01 5.4943502199138283e+00 8.0480606181289593e-01 1.3321226962316674e+01 -2 -3 0
3465 1155 3 4.0999999999999998e-01 7.3710232641576301e+00 1.9279744459377997e+00 1.4483132953113758e+01 0 1 -1
2501 834 4 -8.1999999999999995e-01 8.5309714788437176e+00 7.1817790641278760e+00 1.1043444942783035e+01 -8 3 -1
3270 1090 3 4.0999999999999998e-01 9.9580861443402586e+00 3.4659364367542542e+00 1.1519992624492872e+01 4 -1 -4
6482 2161 4 -8.1999999999999995e-01 9.4138658141390739e+00 9.8792014590408961e+00 1.7495272722507117e+01 0 -1 0
157 53 3 4.0999999999999998e-01 4.3828843314773520e+00 9.8529441168348981e+00 1.8232287528489714e+01 5 0 2
2500 834 3 4.0999999999999998e-01 8.6454743826640783e+00 8.1351859814378678e+00 1.0652187650910591e+01 -8 3 -1
2916 972 3 4.0999999999999998e-01 6.8001913643302005e+00 5.8554834306163404e+00 1.8459521363849188e+01 -2 4 -1
6483 2161 3 4.0999999999999998e-01 9.6366621446121528e+00 9.6173605700727087e+00 1.6493431587425174e+01 0 -1 0
2261 754 4 -8.1999999999999995e-01 3.6095032719009503e+00 1.0232630274443126e+01 1.1135816589725776e+01 -1 -3 1
2970 990 3 4.0999999999999998e-01 5.0701301055822618e+00 2.8772855969274422e+00 1.9203377612633378e+01 0 -2 0
2262 754 3 4.0999999999999998e-01 3.6228040620254003e+00 9.8535164250838445e+00 1.2086014973769080e+01 -1 -3 1
6607 2203 3 4.0999999999999998e-01 6.1034279197326882e+00 2.5900239808172748e-01 1.1490126952057322e+01 -1 -2 -3
4535 1512 4 -8.1999999999999995e-01 6.4130259356256021e+00 1.0473379528479127e+01 1.5163466646304752e+01 3 2 2
2915 972 4 -8.1999999999999995e-01 6.8326119257474796e+00 6.1430763003187039e+00 1.7476209659652103e+01 -2 4 -1
5206 1736 3 4.0999999999999998e-01 6.6105446133672014e+00 7.0169735201681158e+00 1.9963208492692818e+01 0 3 -2
7112 2371 4 -8.1999999999999995e-01 8.9496306468620990e+00 3.9303232641247510e+00 2.0499603436852890e+01 -4 7 2
3275 1092 4 -8.1999999999999995e-01 2.8829462492044096e+00 9.5436717032245411e-01 1.3253325673663118e+01 2 4 0
843 281 3 4.0999999999999998e-01 6.7427613679762688e+00 6.7891176092853254e+00 1.1424293286251581e+01 1 3 -3
1693 565 3 4.0999999999999998e-01 4.9847263160278823e+00 5.0819975034293465e+00 1.9998920344966859e+01 0 0 6
1812 604 3 4.0999999999999998e-01 7.2931990600836505e+00 7.0383242033781599e+00 1.4274577896769003e+01 5 4 5
4608 1536 3 4.0999999999999998e-01 8.1632027639314462e+00 3.6244805881990478e+00 1.2713678815254069e+01 -2 1 3
2968 990 3 4.0999999999999998e-01 6.4338046182800923e+00 1.9439351496079511e+00 1.9012759327940703e+01 0 -2 0
5207 1736 4 -8.1999999999999995e-01 6.2006842650489258e+00 6.1475969311218597e+00 2.0346491480568730e+01 0 3 -2
7113 2371 3 4.0999999999999998e-01 8.3875321418321818e+00 3.2749821109022044e+00 1.9915141282157244e+01 -4 7 2
357 119 3 4.0999999999999998e-01 4.6788909907634482e+00 6.4752992524990614e+00 1.2547322899774306e+01 -1 1 4
3624 1208 3 4.0999999999999998e-01 6.6878689844450783e+00 4.8938193121072748e+00 1.4532447603532800e+01 -3 -4 -1
6993 2331 3 4.0999999999999998e-01 3.0917328222808345e+00 5.8576656381750567e+00 1.4222187848896830e+01 3 -2 0
780 260 3 4.0999999999999998e-01 7.8559164342056169e+00 8.7963896197206672e+00 1.8506860979626957e+01 3 2 2
3073 1025 3 4.0999999999999998e-01 8.9664021429337071e-01 7.1840575658743537e+00 2.0666568033089913e+01 0 3 -6
7233 2411 3 4.0999999999999998e-01 2.8896008357823546e+00 1.0182759189518116e+01 1.6514882824305783e+01 1 3 -1
5502 1834 3 4.0999999999999998e-01 8.9322121702911819e+00 6.4767871591008697e-01 1.3824819693043617e+01 -1 -3 1
5662 1888 3 4.0999999999999998e-01 8.3248517266022037e-01 7.4201507596273313e+00 1.7936666918597560e+01 1 1 -2
4381 1461 3 4.0999999999999998e-01 8.4327783939349938e+00 2.5968900495770417e+00 1.7730415653360982e+01 2 0 3
1834 612 3 4.0999999999999998e-01 4.0477725447871098e+00 4.7497302845180904e+00 1.7654532730655401e+01 -2 -1 3
4198 1400 3 4.0999999999999998e-01 5.9043563382907260e+00 4.3490521317029405e+00 1.0979475151695913e+01 -2 -3 2
3622 1208 3 4.0999999999999998e-01 6.3214642597333839e+00 5.6651376650216179e+00 1.5954790129163875e+01 -3 -4 -1
159 53 3 4.0999999999999998e-01 5.4034490556031063e+00 9.3177132338325794e+00 1.9429218744697803e+01 5 0 2
2260 754 3 4.0999999999999998e-01 4.5985810451499560e+00 1.0451040713608860e+01 1.0866675315539929e+01 -1 -3 1
1695 565 3 4.0999999999999998e-01 3.4309032373472963e+00 4.4305088942784510e+00 2.0333205619371110e+01 0 0 6
158 53 4 -8.1999999999999995e-01 4.3957828668490491e+00 9.4479511826720568e+00 1.9182772197934604e+01 5 0 2
6968 2323 4 -8.1999999999999995e-01 1.0114721310833630e+01 9.4673543133231757e+00 1.4725026959761520e+01 -2 -3 2
6969 2323 3 4.0999999999999998e-01 1.0311545547083135e+01 9.7669435935989064e+00 1.3745567754993328e+01 -2 -3 2
2737 913 3 4.0999999999999998e-01 2.7882588696005297e+00 8.1908685131042116e+00 1.9232965402314861e+01 2 0 1
4131 1377 3 4.0999999999999998e-01 1.5448346203625960e+00 4.0287470834525845e+00 1.8742116051775145e+01 0 -1 3
3276 1092 3 4.0999999999999998e-01 3.0068969595642789e+00 1.1041358773547651e+00 1.4290036241702426e+01 2 4 0
4774 1592 3 4.0999999999999998e-01 5.4148759528739330e+00 5.1883816569035601e-01 1.9160626380789594e+01 -1 -1 2
3463 1155 3 4.0999999999999998e-01 6.1310805890776194e+00 2.8153436268485419e+00 1.4983987810089916e+01 0 1 -1
3605 1202 4 -8.1999999999999995e-01 3.9535337614566104e+00 9.2674671530553212e+00 1.4049741793103671e+01 2 3 -3
2739 913 3 4.0999999999999998e-01 2.5726344517716293e+00 6.6429444491487910e+00 1.8569365220502664e+01 2 0 1
2914 972 3 4.0999999999999998e-01 6.2576789235763748e+00 7.0035510869480007e+00 1.7473867096780168e+01 -2 4 -1
1810 604 3 4.0999999999999998e-01 8.3122005717209948e+00 7.4211483020435010e+00 1.2905058796760235e+01 5 4 5
3644 1215 4 -8.1999999999999995e-01 9.9692652763610106e+00 6.1068609037202803e-01 1.2731545636972463e+01 2 0 6
4130 1377 4 -8.1999999999999995e-01 1.4818353534031004e+00 3.4211044018840018e+00 1.9549408160809129e+01 0 -1 3
5664 1888 3 4.0999999999999998e-01 3.9494292915838786e-01 8.2779145786956807e+00 1.6466405855701655e+01 1 1 -2
2360 787 4 -8.1999999999999995e-01 4.8930272877026928e+00 3.0640313259885477e+00 1.6509822784823530e+01 -4 -2 0
4607 1536 4 -8.1999999999999995e-01 8.7333483172198498e+00 4.3573009020979931e+00 1.2342497546966960e+01 -2 1 3
2512 838 3 4.0999999999999998e-01 5.5862752564721085e-01 3.5476635325468213e+00 1.7085932314065897e+01 -2 2 0
4383 1461 3 4.0999999999999998e-01 8.6903882314377139e+00 1.1724699491935522e+00 1.8694063234991187e+01 2 0 3
3217 1073 3 4.0999999999999998e-01 8.0543800225547013e+00 3.5776643903954390e+00 1.5784258381522839e+01 -3 2 3
5935 1979 3 4.0999999999999998e-01 1.0053795763139400e+01 7.8772344685264306e+00 1.7967037340571707e+01 -1 3 0
3687 1229 3 4.0999999999999998e-01 1.0238134719747126e+01 3.4224708629583782e+00 1.6928391909505240e+01 2 4 3
3464 1155 4 -8.1999999999999995e-01 6.8677815034307086e+00 2.8336328550316523e+00 1.4333325888460125e+01 0 1 -1
999 333 3 4.0999999999999998e-01 2.3485653821905066e+00 2.2821665226494603e+00 1.5944629933484343e+01 1 3 -3
3193 1065 3 4.0999999999999998e-01 9.4055615204008347e-01 7.9718948626183916e+00 1.2452385191549801e+01 1 3 2
778 260 3 4.0999999999999998e-01 7.7116034491385763e+00 9.1497077489968266e+00 2.0088702498112479e+01 3 2 2
3218 1073 4 -8.1999999999999995e-01 8.4470309141306430e+00 4.0262827239850099e+00 1.6656042276456802e+01 -3 2 3
4327 1443 3 4.0999999999999998e-01 1.2247858097343898e+00 2.9883902104677884e+00 1.2363197006121053e+01 -6 2 -1
3604 1202 3 4.0999999999999998e-01 4.9023476921537616e+00 9.6844494371442273e+00 1.4140375074690809e+01 2 3 -3
842 281 4 -8.1999999999999995e-01 5.8649062426509770e+00 6.3071141625920522e+00 1.1179438534387147e+01 1 3 -3
6721 2241 3 4.0999999999999998e-01 1.0343106243837127e+01 4.9384123208682995e+00 1.2993548881909161e+01 -1 1 1
5500 1834 3 4.0999999999999998e-01 9.1287205964400524e+00 4.8397801795287299e-01 1.5447184560237407e+01 -1 -3 1
4104 1368 3 4.0999999999999998e-01 3.0796046250446900e+00 1.0357981299240915e+00 2.0758629308901330e+01 3 -2 -6
3194 1065 4 -8.1999999999999995e-01 6.3090673241888662e-01 7.8583370466392752e+00 1.3451333951155346e+01 1 3 2
5936 1979 4 -8.1999999999999995e-01 1.0422350931432000e+01 6.9352715132803349e+00 1.7946640766334117e+01 -1 3 0
6572 2191 4 -8.1999999999999995e-01 1.0323180201232329e+01 3.5341582729711518e-01 1.6904723357318048e+01 3 0 0
3645 1215 3 4.0999999999999998e-01 1.0570236939870812e+01 7.5858875010705040e-01 1.3587505911130659e+01 2 0 6
440 147 4 -8.1999999999999995e-01 5.2055468034606731e+00 8.1741300152761891e+00 2.8734681693921292e+01 2 6 1
2283 761 3 4.0999999999999998e-01 1.2287119791969516e+00 5.5853335321719708e+00 2.9574394680034960e+01 -1 0 -3
4051 1351 3 4.0999999999999998e-01 8.5586150893960511e+00 1.1988124240580706e+00 2.2456367882690977e+01 1 0 7
3142 1048 3 4.0999999999999998e-01 6.2385347045584227e+00 5.6412140284583190e+00 3.0447179821982132e+01 2 2 0
3541 1181 3 4.0999999999999998e-01 6.5986686680320421e+00 1.0220435328632791e+00 2.9200810006758903e+01 -1 1 0
4747 1583 3 4.0999999999999998e-01 9.7123171826996870e+00 7.0040430230833790e+00 3.0838696069616329e+01 2 -2 -1
2732 911 4 -8.1999999999999995e-01 7.7119241736924558e+00 3.4912538929856565e+00 2.2960607095410701e+01 0 1 2
3542 1181 4 -8.1999999999999995e-01 7.2363786723696792e+00 1.4961745188722917e+00 2.8565008853112637e+01 -1 1 0
4780 1594 3 4.0999999999999998e-01 9.4466988990484939e+00 9.5682017827565904e+00 2.1390268252354431e+01 -2 2 4
7182 2394 3 4.0999999999999998e-01 4.4970982076677153e+00 3.6353485958847300e+00 3.0292727802107155e+01 3 2 -3
6769 2257 3 4.0999999999999998e-01 5.5786529073095652e+00 5.0006502738986658e+00 2.5717294212885363e+01 5 -5 0
4867 1623 3 4.0999999999999998e-01 2.4959462998460928e+00 1.0094531234611704e+01 2.1570681319074968e+01 0 2 -2
7050 2350 3 4.0999999999999998e-01 3.5704302229266198e+00 2.8512228788718676e+00 2.7006779739026765e+01 3 3 0
1905 635 3 4.0999999999999998e-01 3.0867321393841856e+00 2.5389174721321268e+00 3.1213890383514435e+01 4 2 0
1405 469 3 4.0999999999999998e-01 1.8894140395577095e+00 1.0055474972741276e+01 2.3543519523291263e+01 1 -1 1
5208 1736 3 4.0999999999999998e-01 5.9607714637089027e+00 6.3295330342324796e+00 2.1376242817611878e+01 0 3 -2
6274 2092 3 4.0999999999999998e-01 5.9177581996869639e+00 8.5350033042918021e+00 2.2944591103183786e+01 -3 2 8
3603 1201 3 4.0999999999999998e-01 6.3899841737285525e+00 1.6353961445851182e+00 2.6202209587271536e+01 3 4 -1
4808 1603 4 -8.1999999999999995e-01 2.6294680383265767e+00 6.0709799671649218e+00 2.9865410422061945e+01 -1 1 -3
1947 649 3 4.0999999999999998e-01 6.6881811125827593e+00 4.6537981330732006e+00 2.9102862360612107e+01 2 -3 -2
583 195 3 4.0999999999999998e-01 3.0348722508201607e+00 7.9819680690836459e-01 2.6761602331712833e+01 -1 -3 4
1407 469 3 4.0999999999999998e-01 2.5727748616314994e+00 8.6001018318535980e+00 2.3702398009957161e+01 1 -1 1
3198 1066 3 4.0999999999999998e-01 4.3405304491470247e+00 2.5917224505284602e+00 2.2766483304175679e+01 -1 0 -5
7234 2412 3 4.0999999999999998e-01 5.6280086449279265e+00 7.6283006480189341e-01 2.2176912987831606e+01 2 0 2