LAMMPS data file via write_data, version 5 Jun 2019, timestep = 22675000

7349 atoms
5 atom types
4899 bonds
2 bond types
2451 angles
2 angle types
1 impropers
1 improper types

1.5519297081455363e-01 4.1845807029189409e+01 xlo xhi
1.5469297081455124e-01 4.1845307029189406e+01 ylo yhi
1.5469297081455124e-01 4.1845307029189406e+01 zlo zhi

#Masses
#
#1 12.01
#2 40.08
#3 1.01
#4 16
#5 16
#
#Bond Coeffs # harmonic
#
#1 20.4246 1.3042
#2 22.965 1.012

Atoms # full

2390 797 4 -8.1999999999999995e-01 3.4077956716423645e+00 6.4464258090858051e+00 8.4784629516565175e+00 -2 1 3
5285 1762 4 -8.1999999999999995e-01 1.0120396873840242e+01 5.3284100906832759e+00 1.7789303636039016e+00 4 1 -2
7021 2341 3 4.0999999999999998e-01 6.6814125451119981e+00 2.6736872792495854e+00 7.1793580553607690e+00 -4 -2 2
2115 705 3 4.0999999999999998e-01 2.8659318921670072e+00 5.0128642885133079e+00 5.4310401761028073e+00 1 -2 3
2460 820 3 4.0999999999999998e-01 7.9578036131056329e-01 1.6060144068991313e+00 5.1592260731827730e+00 3 2 -2
2113 705 3 4.0999999999999998e-01 2.8498725183153484e+00 5.6989054967190418e+00 6.9583865170390116e+00 1 -2 3
355 119 3 4.0999999999999998e-01 5.8736200588984708e+00 9.6313374030165022e-01 6.3825664102934510e-01 0 1 4
5711 1904 4 -8.1999999999999995e-01 8.2253944995351098e+00 6.0593369441008837e+00 3.8956443362763244e+00 0 -1 -4
4256 1419 4 -8.1999999999999995e-01 5.2278017273830537e+00 5.5064803171912571e+00 1.6903252112793989e+00 -1 3 2
296 99 4 -8.1999999999999995e-01 6.5141162751248372e+00 9.2648107025989752e+00 3.4717277142799405e+00 -1 -2 1
2771 924 4 -8.1999999999999995e-01 2.7435892151136105e+00 7.4630406529433237e+00 3.7064525461933071e+00 2 3 -3
5718 1906 3 4.0999999999999998e-01 8.1069234133586718e+00 9.9315027330279921e+00 9.2067158614980453e+00 -1 -2 -1
295 99 3 4.0999999999999998e-01 5.7669786971754133e+00 9.1917711838710119e+00 2.7511792428457493e+00 -1 -2 1
6694 2232 3 4.0999999999999998e-01 1.0201154693613709e+01 2.3357770170137493e-01 1.0932680330976661e+00 -3 1 -1
4455 1485 3 4.0999999999999998e-01 8.3024761339591020e+00 1.8660709405549718e+00 5.7262421176019416e+00 -1 2 2
579 193 3 4.0999999999999998e-01 4.4154256364459634e+00 4.8898745830508199e+00 2.8701542839036875e+00 3 3 0
4995 1665 3 4.0999999999999998e-01 9.9826622706286017e+00 5.4112967488179002e+00 8.7725583529550075e+00 6 4 -2
7217 2406 4 -8.1999999999999995e-01 9.8017534827994375e+00 5.1968938553091766e+00 6.6090244834432381e+00 1 3 -2
5883 1961 3 4.0999999999999998e-01 2.8990237417033042e+00 7.1530142252417930e+00 2.0799799484487851e+00 -1 -1 2
3107 1036 4 -8.1999999999999995e-01 2.4062720396342971e+00 8.8745912799596971e-01 8.8508152631763863e+00 0 3 0
2106 702 3 4.0999999999999998e-01 1.3517257696720799e+00 5.9013745127776192e+00 2.4868558746295042e+00 5 1 3
2764 922 3 4.0999999999999998e-01 2.9733480733015352e+00 1.7752997846278111e+00 6.9814119417167966e+00 -3 1 2
3160 1054 3 4.0999999999999998e-01 5.9853577146025163e+00 8.4957681206833833e+00 5.2137351062796746e+00 3 -3 3
5881 1961 3 4.0999999999999998e-01 2.2386143938819285e+00 7.3191771092085833e+00 5.4392600420367176e-01 -1 -1 2
3106 1036 3 4.0999999999999998e-01 1.7792903222308809e+00 9.6753965927955887e-01 9.6635887913892020e+00 0 3 0
6970 2324 3 4.0999999999999998e-01 9.0764728537343817e+00 8.8915426735518235e+00 1.4556740861134945e+00 1 -1 -1
7022 2341 4 -8.1999999999999995e-01 6.0476161972706555e+00 3.4629419989603121e+00 7.0482504437581168e+00 -4 -2 2
720 240 3 4.0999999999999998e-01 8.4158148450983505e-01 6.3509735180636939e+00 5.9491356375763695e+00 0 -1 -1
4454 1485 4 -8.1999999999999995e-01 7.8212741139821294e+00 1.3468891787594586e+00 6.4398563380489513e+00 -1 2 2
3507 1169 3 4.0999999999999998e-01 4.6207985590859861e+00 2.6871232807415296e-01 6.0814265326615651e+00 0 0 3
2509 837 3 4.0999999999999998e-01 9.4588730478706804e+00 3.2406461559445371e-01 6.6585619980607955e+00 0 -1 0
3581 1194 4 -8.1999999999999995e-01 5.5897098128638980e+00 9.6626595458523337e+00 8.4330780820462099e+00 -1 -2 7
452 151 4 -8.1999999999999995e-01 7.7052331138561030e+00 3.7101940662366975e+00 2.7246810035717406e+00 2 2 1
4015 1339 3 4.0999999999999998e-01 2.3997673676623603e+00 8.9363201635688725e+00 6.7325207129487898e+00 -2 -1 -1
6971 2324 4 -8.1999999999999995e-01 8.4517739465999906e+00 8.2489531973638925e+00 2.0171724115830663e+00 1 -1 -1
2329 777 3 4.0999999999999998e-01 6.8426260620957366e+00 6.0566809308584251e+00 7.9365370315904675e+00 -1 -1 -1
2330 777 4 -8.1999999999999995e-01 7.7457144405126517e+00 6.3949798231620960e+00 8.2298250225989502e+00 -1 -1 -1
577 193 3 4.0999999999999998e-01 2.9962937535033825e+00 4.1320211644813067e+00 3.4168245439900855e+00 3 3 0
2114 705 4 -8.1999999999999995e-01 2.3509416079656575e+00 5.5953694161064025e+00 6.1016649767711675e+00 1 -2 3
4451 1484 4 -8.1999999999999995e-01 5.6385147159672497e+00 5.6327301727691497e+00 5.4779787854362958e+00 3 -1 3
4453 1485 3 4.0999999999999998e-01 7.1049337883953241e+00 7.3561075801899856e-01 5.9853310315642299e+00 -1 2 2
6501 2167 3 4.0999999999999998e-01 3.4864738396295900e+00 1.4504008583655053e+00 4.6772054459297907e+00 -2 3 -1
7128 2376 3 4.0999999999999998e-01 1.0577395164550923e+01 8.6959327294891349e+00 5.5020682603257347e+00 1 -1 3
969 323 3 4.0999999999999998e-01 4.4214129311568797e+00 9.2723313942322960e+00 8.5910324021642370e-01 -1 1 1
1996 666 3 4.0999999999999998e-01 9.7865823234120306e+00 1.5369962517936318e+00 3.9914632313788974e+00 -2 -1 -3
1558 520 3 4.0999999999999998e-01 1.0432619870439357e+00 9.2894403094996107e+00 2.4331221385596762e+00 -2 4 3
4450 1484 3 4.0999999999999998e-01 5.8297241821090173e+00 4.8641507193521871e+00 6.1103641786616798e+00 3 -1 3
968 323 4 -8.1999999999999995e-01 4.3773629565935153e+00 9.5882543665519293e+00 1.7879625830068346e+00 -1 1 1
7023 2341 3 4.0999999999999998e-01 5.5833509698548118e+00 3.3260164073400276e+00 7.9219030579337639e+00 -4 -2 2
2104 702 3 4.0999999999999998e-01 8.0569243697670734e-01 4.4253727021749976e+00 1.9118980979851490e+00 5 1 3
6972 2324 3 4.0999999999999998e-01 7.9635457205543574e+00 7.6051732156462526e+00 1.3780936273422459e+00 1 -1 -1
357 119 3 4.0999999999999998e-01 4.3036482108021614e+00 7.7655637694630664e-01 2.8630083314963456e-01 0 1 4
6290 2097 4 -8.1999999999999995e-01 7.6174807856204678e+00 8.4874633022435191e+00 1.0281092322531384e+01 -1 0 0
1787 596 4 -8.1999999999999995e-01 2.9914563863976120e+00 9.3039361267318785e+00 8.4091485791422631e+00 1 1 3
4452 1484 3 4.0999999999999998e-01 4.9019666594761233e+00 5.2463851313652290e+00 4.8417777176544501e+00 3 -1 3
3582 1194 3 4.0999999999999998e-01 5.7408089207048087e+00 9.2942544043278001e+00 7.4500911909344918e+00 -1 -2 7
1835 612 4 -8.1999999999999995e-01 1.7704171463549654e+00 3.0128241806086820e+00 1.1079246027217207e+00 -1 0 3
3786 1262 3 4.0999999999999998e-01 4.2450528538538048e+00 4.1615414638774109e+00 9.5416519638658581e+00 2 0 0
2331 777 3 4.0999999999999998e-01 8.3825322541878275e+00 6.1034065868348053e+00 7.4875570587492559e+00 -1 -1 -1
2458 820 3 4.0999999999999998e-01 1.6985355861729008e+00 1.5873755024980032e+00 3.6623790049957781e+00 3 2 -2
4257 1419 3 4.0999999999999998e-01 4.2545025754548584e+00 5.7956237613014014e+00 1.5177249338422096e+00 -1 3 2
578 193 4 -8.1999999999999995e-01 3.7861410772936597e+00 4.7746214078697937e+00 3.7281080913632136e+00 3 3 0
5712 1904 3 4.0999999999999998e-01 8.5182162724010748e+00 6.9082604133596002e+00 3.4255356104513264e+00 0 -1 -4
2772 924 3 4.0999999999999998e-01 3.3748498876305222e+00 6.6518439438085339e+00 3.9424662294091308e+00 2 3 -3
7216 2406 3 4.0999999999999998e-01 9.2679651264528520e+00 4.5884852969862839e+00 6.0054684397334581e+00 1 3 -2
3818 1273 4 -8.1999999999999995e-01 4.2078205442458866e-01 8.0400964770482872e+00 8.0987802903727086e+00 -2 0 -2
4989 1663 3 4.0999999999999998e-01 7.1956234923185551e+00 2.0504799536590212e+00 2.3949111191446399e+00 0 1 2
4593 1531 3 4.0999999999999998e-01 9.5840754816306606e-01 7.8720909124537304e+00 1.0209721174349264e+01 6 -2 -1
4994 1665 4 -8.1999999999999995e-01 1.0528115177030545e+01 5.7726266216340445e+00 9.4980611358771441e+00 6 4 -2
5882 1961 4 -8.1999999999999995e-01 2.8108743850182893e+00 6.7127007650650992e+00 1.1564850220469998e+00 -1 -1 2
2389 797 3 4.0999999999999998e-01 3.1265659984743124e+00 7.4180834939672327e+00 8.4231699782202494e+00 -2 1 3
453 151 3 4.0999999999999998e-01 7.5932867524799166e+00 4.0991134623177308e+00 1.7430374714369621e+00 2 2 1
1786 596 3 4.0999999999999998e-01 4.0196854448416097e+00 9.3870713884908490e+00 8.3575710340451508e+00 1 1 3
6500 2167 4 -8.1999999999999995e-01 3.3919914378994176e+00 1.4682032359426644e+00 3.6595213174434336e+00 -2 3 -1
5286 1762 3 4.0999999999999998e-01 9.5235874176961275e+00 4.8844470433672953e+00 2.4827797428167702e+00 4 1 -2
3161 1054 4 -8.1999999999999995e-01 5.4429377947928996e+00 8.3507219147603369e+00 6.0637079479464244e+00 3 -3 3
5284 1762 3 4.0999999999999998e-01 9.7410024230252112e+00 5.1760586586084072e+00 8.8670848550335357e-01 4 1 -2
3784 1262 3 4.0999999999999998e-01 3.4843974520250143e+00 2.7626811050402438e+00 9.0100230638649954e+00 2 0 0
4988 1663 4 -8.1999999999999995e-01 7.0247390088406068e+00 1.0571484780857605e+00 2.1560342112333579e+00 0 1 2
6291 2097 3 4.0999999999999998e-01 6.6310593462673619e+00 8.4108155926938402e+00 9.9758663951608977e+00 -1 0 0
4016 1339 4 -8.1999999999999995e-01 2.7700157027872749e+00 9.1074578634233863e+00 5.7894606297954398e+00 -2 -1 -1
2765 922 4 -8.1999999999999995e-01 3.8111632645605287e+00 1.6518733250181707e+00 6.3957836990829646e+00 -3 1 2
6456 2152 3 4.0999999999999998e-01 7.7975994777624855e+00 3.6128042762359031e-01 8.2162510927459458e+00 2 1 2
3785 1262 4 -8.1999999999999995e-01 4.3650287692612686e+00 3.2741286333038171e+00 9.1576822951586330e+00 2 0 0
873 291 3 4.0999999999999998e-01 7.3367816135979247e-01 4.3651282846809538e+00 6.3626791831681482e+00 3 0 -2
4255 1419 3 4.0999999999999998e-01 5.8655501180535285e+00 5.8989672113756377e+00 1.0690884682826711e+00 -1 3 2
4017 1339 3 4.0999999999999998e-01 3.8182905590307441e+00 9.0227345703921245e+00 5.8495291304282189e+00 -2 -1 -1
5710 1904 3 4.0999999999999998e-01 7.2456379998737601e+00 6.1591086470972245e+00 4.2883775569575766e+00 0 -1 -4
967 323 3 4.0999999999999998e-01 3.7591040110468219e+00 1.0449922635494300e+01 1.8919376032223905e+00 -1 1 1
6499 2167 3 4.0999999999999998e-01 4.1416030286275456e+00 8.7157371054048483e-01 3.2944689043730597e+00 -2 3 -1
297 99 3 4.0999999999999998e-01 7.3178181801740241e+00 8.9487016669119370e+00 2.9103303413229931e+00 -1 -2 1
1836 612 3 4.0999999999999998e-01 2.2379783161211866e+00 2.2115224874603752e+00 1.5273435196616014e+00 -1 0 3
1834 612 3 4.0999999999999998e-01 1.2350997713050744e+00 2.6119572055280735e+00 2.9182921350523572e-01 -1 0 3
1997 666 4 -8.1999999999999995e-01 9.8093278913011179e+00 2.2807147416135991e+00 4.6227657297474947e+00 -2 -1 -3
3162 1054 3 4.0999999999999998e-01 5.3057447590807731e+00 7.3780712944081452e+00 6.2014833101833382e+00 3 -3 3
2391 797 3 4.0999999999999998e-01 3.7370531474149478e+00 6.2696083689402364e+00 9.4302989530471866e+00 -2 1 3
451 151 3 4.0999999999999998e-01 7.8054014945425854e+00 4.5730649787183779e+00 3.2526801111446555e+00 2 2 1
2766 922 3 4.0999999999999998e-01 4.4338372749315358e+00 2.4483364748673448e+00 6.3693036292659428e+00 -3 1 2
1788 596 3 4.0999999999999998e-01 2.8362516184912416e+00 9.9749969609045444e+00 9.1789313672185688e+00 1 1 3
4987 1663 3 4.0999999999999998e-01 7.9248800837208710e+00 5.7615810665982603e-01 2.0131713823492090e+00 0 1 2
2770 924 3 4.0999999999999998e-01 2.7464546960891565e+00 8.0568107419876913e+00 4.5864079192337854e+00 2 3 -3
1559 520 4 -8.1999999999999995e-01 8.4013056560789212e-01 1.0265974267066781e+01 2.2730687014795725e+00 -2 4 3
4231 1411 3 4.0999999999999998e-01 8.8019179898084907e+00 1.1185246212905557e+00 1.0274966422953334e+01 -1 -1 1
2105 702 4 -8.1999999999999995e-01 5.8542291848028172e-01 5.2130074347329263e+00 2.5421925246475992e+00 5 1 3
2459 820 4 -8.1999999999999995e-01 7.5839071945487080e-01 1.4880754635375339e+00 4.1437553543549717e+00 3 2 -2
6289 2097 3 4.0999999999999998e-01 8.0282999233425887e+00 7.8760257651755445e+00 9.5577177154844790e+00 -1 0 0
1068 356 3 4.0999999999999998e-01 4.5496105120807639e+00 7.7489223312176148e-01 9.1861894414099030e+00 1 -1 0
4104 1368 3 4.0999999999999998e-01 1.0140815262757389e+01 1.0381870761689662e+01 9.8781855002854613e+00 3 -1 -7
3817 1273 3 4.0999999999999998e-01 1.7611619856686078e-01 7.4381504386096431e+00 7.2604790823648520e+00 -2 0 -2
2599 867 3 4.0999999999999998e-01 7.4839213741151420e+00 2.2512461116174558e+00 1.8439442684447201e+01 4 1 2
2671 891 3 4.0999999999999998e-01 4.6738589133173454e+00 7.1922283094836761e+00 1.3891008631014103e+01 3 2 -1
2782 928 3 4.0999999999999998e-01 1.0738369306395579e+00 1.0098743620296901e+01 1.8949194012643858e+01 3 0 2
5277 1759 3 4.0999999999999998e-01 5.0266277365742154e+00 1.3229190674421067e+00 2.0518745552030460e+01 -6 -3 0
3215 1072 4 -8.1999999999999995e-01 8.4629270194842636e+00 3.5592124545934509e+00 1.5872414868059705e+01 3 4 -1
1206 402 3 4.0999999999999998e-01 9.0576049751966163e+00 6.1399199380775151e+00 1.3201997554436149e+01 -1 -3 2
6151 2051 3 4.0999999999999998e-01 2.6641872424840640e+00 9.5633767420547198e+00 1.9457086220264806e+01 1 3 -2
1373 458 4 -8.1999999999999995e-01 6.2620931278850893e+00 1.2722776806976335e+00 1.1992486369326661e+01 -2 0 3
270 90 3 4.0999999999999998e-01 7.4192449972580450e+00 5.2462876331218720e+00 1.1459014234173965e+01 0 0 -4
5201 1734 4 -8.1999999999999995e-01 1.0379841730979130e+01 8.0362045667612314e+00 2.0862046549965097e+01 4 7 -2
924 308 3 4.0999999999999998e-01 8.9088720950598663e+00 2.3213018163197510e+00 1.2605546920250859e+01 -1 3 -2
2697 899 3 4.0999999999999998e-01 1.2914073945078834e+00 6.0159850222874862e+00 1.1588228080484358e+01 2 1 -1
792 264 3 4.0999999999999998e-01 5.4270715114726684e+00 5.1346247441243520e+00 1.6159818028343960e+01 -5 4 -4
5584 1862 3 4.0999999999999998e-01 3.4461260113838259e+00 9.6166669819978807e+00 1.6072241362984879e+01 5 -2 -1
5585 1862 4 -8.1999999999999995e-01 3.9723190323451454e+00 9.2453587048025909e+00 1.6823057884686136e+01 5 -2 -1
1797 599 3 4.0999999999999998e-01 1.6938081428311877e+00 5.0340271796356939e+00 1.8899837573776022e+01 -3 4 -1
3214 1072 3 4.0999999999999998e-01 8.3778292603711275e+00 3.2011435960487553e+00 1.4912006146312116e+01 3 4 -1
519 173 3 4.0999999999999998e-01 7.1095039294012583e+00 2.2834139227629979e+00 2.0638225571074823e+01 1 0 1
2427 809 3 4.0999999999999998e-01 1.6890430277968074e+00 1.2683395227646093e+00 1.5363937183289787e+01 -1 0 -1
4941 1647 3 4.0999999999999998e-01 3.3578611095175512e+00 1.5612658516497822e+00 1.1912439828303906e+01 1 4 -4
4940 1647 4 -8.1999999999999995e-01 3.6687211530870316e+00 7.2140792401802967e-01 1.2413195120881511e+01 1 4 -4
1374 458 3 4.0999999999999998e-01 6.5647190139187845e+00 5.3878043090131567e-01 1.1359333431556353e+01 -2 0 3
6880 2294 3 4.0999999999999998e-01 9.6590118814416981e-01 8.5957437830152497e+00 1.4009205203510787e+01 3 -3 2
4761 1587 3 4.0999999999999998e-01 6.8614465298941703e+00 9.1285506172917703e+00 1.5164587055690088e+01 -2 -1 2
268 90 3 4.0999999999999998e-01 7.1831403079521747e+00 3.6139175492354489e+00 1.1697365168224367e+01 0 0 -4
4759 1587 3 4.0999999999999998e-01 6.6982106551770348e+00 7.5741451095533989e+00 1.5768828188866159e+01 -2 -1 2
4760 1587 4 -8.1999999999999995e-01 6.2581312429712357e+00 8.4882519160668242e+00 1.5643979735758226e+01 -2 -1 2
2695 899 3 4.0999999999999998e-01 2.8316355348017570e+00 5.3911318679221392e+00 1.1453780060735385e+01 2 1 -1
4342 1448 3 4.0999999999999998e-01 7.5544746128518376e+00 9.6332716496560913e+00 2.0759569131733194e+01 4 0 -6
922 308 3 4.0999999999999998e-01 8.4230904564308933e+00 1.4121424302045713e+00 1.3924494562857658e+01 -1 3 -2
4344 1448 3 4.0999999999999998e-01 9.1190470098940040e+00 9.0779034141691888e+00 2.0900312676616526e+01 4 0 -6
518 173 4 -8.1999999999999995e-01 7.8557868978142045e+00 2.7412813776899494e+00 2.0041324514888551e+01 1 0 1
4233 1411 3 4.0999999999999998e-01 1.0005317760556393e+01 2.2428468230665568e+00 1.0740200976034364e+01 -1 -1 1
791 264 4 -8.1999999999999995e-01 4.5747676582034540e+00 4.7166069945408173e+00 1.6541858849871971e+01 -5 4 -4
3744 1248 3 4.0999999999999998e-01 4.5299259389586899e+00 6.5320876228629299e+00 1.1494903536622026e+01 -1 4 -2
2136 712 3 4.0999999999999998e-01 9.3595015297656818e+00 6.2321522496812864e+00 1.0975335202418771e+01 1 4 1
3121 1041 3 4.0999999999999998e-01 7.7996995074130444e+00 6.5441334388059618e+00 1.7297601931442745e+01 -4 -1 1
6153 2051 3 4.0999999999999998e-01 3.3938693306781360e+00 8.2607743545849086e+00 1.8742438251478468e+01 1 3 -2
3743 1248 4 -8.1999999999999995e-01 4.4831549839148126e+00 5.5682642346827231e+00 1.0961566847900093e+01 -1 4 -2
2848 950 3 4.0999999999999998e-01 2.2424007613789301e+00 3.5438036814895004e+00 1.4858393963649258e+01 -1 -1 -2
555 185 3 4.0999999999999998e-01 5.2969384703570874e+00 6.1211570142450817e+00 1.9482985299017638e+01 2 2 -2
790 264 3 4.0999999999999998e-01 3.7550824277858439e+00 4.6358025025840526e+00 1.5887537322636929e+01 -5 4 -4
3123 1041 3 4.0999999999999998e-01 7.8992706863814011e+00 5.0413029250505339e+00 1.6348992982270715e+01 -4 -1 1
2601 867 3 4.0999999999999998e-01 6.1275078482392074e+00 2.0587721851102745e+00 1.7398736330231618e+01 4 1 2
5197 1733 3 4.0999999999999998e-01 8.0526240217488247e+00 5.7307193404893253e-01 1.7860126952771569e+01 0 -4 2
6152 2051 4 -8.1999999999999995e-01 3.1195663544262215e+00 8.6107886067153672e+00 1.9635425292657228e+01 1 3 -2
3216 1072 3 4.0999999999999998e-01 7.8845664270109950e+00 2.8401726087928609e+00 1.6319933873897341e+01 3 4 -1
4209 1403 3 4.0999999999999998e-01 2.8933854567396183e-01 8.6106652909123067e+00 2.0709758800351970e+01 2 2 -1
2850 950 3 4.0999999999999998e-01 2.3000166449886339e+00 4.9082483362163067e+00 1.3822042539575744e+01 -1 -1 -2
4686 1562 3 4.0999999999999998e-01 3.9325553834786855e+00 1.7397500425131684e+00 1.8810765005057934e+01 2 -3 2
3530 1177 4 -8.1999999999999995e-01 1.7574960138330844e+00 2.4197053568235232e+00 1.1328191436721010e+01 0 3 -1
5606 1869 4 -8.1999999999999995e-01 4.4246940993192085e+00 1.0156755191602254e+01 1.2528085253068157e+01 0 2 3
2426 809 4 -8.1999999999999995e-01 2.4526274356183855e+00 1.7592537202120719e+00 1.4939421532711874e+01 -1 0 -1
3122 1041 4 -8.1999999999999995e-01 7.5608063125837637e+00 6.0138409432612630e+00 1.6429540425653421e+01 -4 -1 1
6967 2323 3 4.0999999999999998e-01 4.5952233990953335e+00 2.9880985968055307e+00 1.7128766347052895e+01 -2 -3 3
6968 2323 4 -8.1999999999999995e-01 4.5888290850408211e+00 1.9110045991755369e+00 1.7004711329861383e+01 -2 -3 3
3203 1068 4 -8.1999999999999995e-01 5.7203673948411033e+00 9.0577120490361462e+00 2.0845466789100012e+01 0 3 1
3202 1068 3 4.0999999999999998e-01 4.9308966170599096e+00 8.8217036185188018e+00 2.0254690252982829e+01 0 3 1
3198 1066 3 4.0999999999999998e-01 9.1430397316824834e+00 5.6434221475961053e+00 2.0125457970277331e+01 -2 0 -5
269 90 4 -8.1999999999999995e-01 6.8959536814547153e+00 4.3785435275558964e+00 1.1155087774142139e+01 0 0 -4
5156 1719 4 -8.1999999999999995e-01 6.9983376713679499e+00 1.0448537742051064e+01 1.2041956608509366e+01 -1 4 4
2672 891 4 -8.1999999999999995e-01 4.0184725965140773e+00 7.3152661344370458e+00 1.3123582347811375e+01 3 2 -1
1579 527 3 4.0999999999999998e-01 7.5072829129908287e+00 8.9002635743105287e+00 1.8071799104485837e+01 -2 -4 3
2849 950 4 -8.1999999999999995e-01 2.5009394434304797e+00 4.5089460582507099e+00 1.4723581891142654e+01 -1 -1 -2
3196 1066 3 4.0999999999999998e-01 8.6524206527858638e+00 6.5956790707630288e+00 1.8921974906960461e+01 -2 0 -5
2134 712 3 4.0999999999999998e-01 8.2836446845881699e+00 7.3673044113373480e+00 1.1370262763897898e+01 1 4 1
4684 1562 3 4.0999999999999998e-01 2.6250008148635771e+00 1.3558603444745236e+00 1.9749810857540218e+01 2 -3 2
2696 899 4 -8.1999999999999995e-01 1.8696734994925654e+00 5.1788500271563098e+00 1.1773292150595040e+01 2 1 -1
4939 1647 3 4.0999999999999998e-01 4.6889911650763691e+00 9.8338045242468819e-01 1.2312825317081824e+01 1 4 -4
1581 527 3 4.0999999999999998e-01 6.4674415345801854e+00 7.5621722126200792e+00 1.8288585836423707e+01 -2 -4 3
2600 867 4 -8.1999999999999995e-01 7.1591455525579732e+00 2.1290384115380743e+00 1.7478308058438582e+01 4 1 2
6881 2294 4 -8.1999999999999995e-01 1.4105860397709387e+00 7.8314664287468814e+00 1.3493221225193746e+01 3 -3 2
1204 402 3 4.0999999999999998e-01 8.7049344690248009e+00 5.8388111496017387e+00 1.4789873999337489e+01 -1 -3 2
5155 1719 3 4.0999999999999998e-01 7.3916644490393129e+00 9.8189054786995182e+00 1.1341344062316937e+01 -1 4 4
5586 1862 3 4.0999999999999998e-01 4.8910413182065477e+00 8.8673567260336466e+00 1.6496178413625110e+01 5 -2 -1
1580 527 4 -8.1999999999999995e-01 7.5004236824714692e+00 7.8687041566602822e+00 1.8278201065758058e+01 -2 -4 3
6969 2323 3 4.0999999999999998e-01 3.7645009609341415e+00 1.7870214752942724e+00 1.6325670858653361e+01 -2 -3 3
5605 1869 3 4.0999999999999998e-01 5.4413112331154263e+00 1.0312165083528612e+01 1.2407946747274805e+01 0 2 3
3742 1248 3 4.0999999999999998e-01 5.4371847922104957e+00 5.1087880637607146e+00 1.1015302105620306e+01 -1 4 -2
4685 1562 4 -8.1999999999999995e-01 3.6315272811583146e+00 1.2404666267268232e+00 1.9667088123537813e+01 2 -3 2
3842 1281 4 -8.1999999999999995e-01 2.0729102778085379e-01 7.9992120370264699e+00 1.6666943380984112e+01 1 -1 -2
4232 1411 4 -8.1999999999999995e-01 9.2305534035467591e+00 1.6168080763676758e+00 1.1040596651103819e+01 -1 -1 1
3197 1066 4 -8.1999999999999995e-01 9.2660040792438103e+00 5.8107735934053881e+00 1.9109593515151388e+01 -2 0 -5
6882 2294 3 4.0999999999999998e-01 9.4048235557539839e-01 7.7416402025158471e+00 1.2582935531267838e+01 3 -3 2
253 85 3 4.0999999999999998e-01 9.7753479575060744e+00 7.2691741121937934e+00 1.6012729194261262e+01 1 -2 3
1796 599 4 -8.1999999999999995e-01 1.4014530630121704e+00 4.6769214701430606e+00 1.7956282307180935e+01 -3 4 -1
5607 1869 3 4.0999999999999998e-01 4.3859137033938183e+00 9.1682136458252135e+00 1.2816766019806114e+01 0 2 3
4592 1531 4 -8.1999999999999995e-01 4.4641304255867920e-01 7.5378212913888243e+00 1.1024075787100518e+01 6 -2 -1
1269 423 3 4.0999999999999998e-01 3.2905497642430963e+00 5.8155139247484096e+00 2.0045631884563587e+01 4 3 4
1795 599 3 4.0999999999999998e-01 2.1795909256828292e+00 4.9245326318963665e+00 1.7281198725436958e+01 -3 4 -1
1205 402 4 -8.1999999999999995e-01 9.3998847762179878e+00 6.1659436189801724e+00 1.4200466298357155e+01 -1 -3 2
3529 1177 3 4.0999999999999998e-01 1.7987881962740664e+00 3.4233139222390139e+00 1.1319160636340579e+01 0 3 -1
1268 423 4 -8.1999999999999995e-01 2.3859249983454873e+00 5.3806895214267438e+00 2.0267535636432140e+01 4 3 4
3841 1281 3 4.0999999999999998e-01 1.1534248294862708e+00 8.2474482339072637e+00 1.6286515231133723e+01 1 -1 -2
2425 809 3 4.0999999999999998e-01 2.7428266128492167e+00 1.3590407750354914e+00 1.4015246643254336e+01 -1 0 -1
2673 891 3 4.0999999999999998e-01 3.0267391610724523e+00 7.4137395887596274e+00 1.3435066755700495e+01 3 2 -1
255 85 3 4.0999999999999998e-01 9.9683065786768612e+00 6.4860529403252123e+00 1.7373114421375071e+01 1 -2 3
553 185 3 4.0999999999999998e-01 4.8004529272717296e+00 6.1085837595096333e+00 1.7858159083063644e+01 2 2 -2
554 185 4 -8.1999999999999995e-01 5.1371121989104891e+00 6.7095677119504371e+00 1.8601080396706724e+01 2 2 -2
2135 712 4 -8.1999999999999995e-01 8.6374926073401781e+00 6.4479871944473546e+00 1.1676262057108691e+01 1 4 1
5683 1895 3 4.0999999999999998e-01 9.7244981271245194e+00 1.0493012062627216e+01 1.9546092233492764e+01 -3 -1 4
1372 458 3 4.0999999999999998e-01 7.0377784635935141e+00 1.7547583672741702e+00 1.2523029335406880e+01 -2 0 3
923 308 4 -8.1999999999999995e-01 8.2883385528768514e+00 2.3251919600631696e+00 1.3454716668373129e+01 -1 3 -2
5317 1773 3 4.0999999999999998e-01 3.1101909616250452e+00 1.0387567363287561e+01 1.1097756476487556e+01 3 2 1
517 173 3 4.0999999999999998e-01 8.7667029310450442e+00 2.3728585801656448e+00 2.0325852339248755e+01 1 0 1
4977 1659 3 4.0999999999999998e-01 6.7135438485139645e+00 4.4349856001483134e+00 2.0041110942198408e+01 -1 4 0
4976 1659 4 -8.1999999999999995e-01 6.0245484528903503e+00 5.0859462358423517e+00 2.0434893664917965e+01 -1 4 0
3531 1177 3 4.0999999999999998e-01 7.4779481472618903e-01 2.2510326193423316e+00 1.1628865287669026e+01 0 3 -1
254 85 4 -8.1999999999999995e-01 1.0405322967462698e+01 7.2129549453519557e+00 1.6805385921395242e+01 1 -2 3
2379 793 3 4.0999999999999998e-01 1.0388624315157275e+01 4.7228724234654109e+00 1.8572720948536048e+01 -6 -3 4
4990 1664 3 4.0999999999999998e-01 1.0528586160998699e+01 4.9370670144089122e+00 1.4007298056969239e+01 -1 -3 0
5899 1967 3 4.0999999999999998e-01 2.3733114755017937e-01 4.4011962733697825e+00 1.6652020402446105e+01 2 0 2
366 122 3 4.0999999999999998e-01 4.5923255183791536e+00 1.0533984117671681e+01 1.7464143553149292e+01 -3 -1 1
5999 2000 4 -8.1999999999999995e-01 7.5881677696512995e+00 1.0573330381123689e+01 1.7561651244346283e+01 4 -1 0
5912 1971 4 -8.1999999999999995e-01 7.8989224051083040e+00 1.0546259205662702e+01 1.4595915876594498e+01 -4 3 1
6904 2302 3 4.0999999999999998e-01 1.0188666168992837e+01 1.8920098445923372e-01 1.1695935764417895e+01 0 1 3
5893 1965 3 4.0999999999999998e-01 4.0710291767372233e+00 3.1076541034239309e+00 2.9426333717994513e+01 2 1 1
6624 2208 3 4.0999999999999998e-01 9.4237145466674193e+00 6.2582073602163824e-01 2.4077049131355917e+01 -5 -3 1
41 14 4 -8.1999999999999995e-01 3.7323835819565638e+00 8.2572806507318397e+00 2.7901872377671783e+01 0 -4 -5
5895 1965 3 4.0999999999999998e-01 4.2495727568944588e+00 1.5142660002791772e+00 2.8894302244887275e+01 2 1 1
40 14 3 4.0999999999999998e-01 3.1591757683253334e+00 9.0466497125776417e+00 2.8022905067534264e+01 0 -4 -5
1267 423 3 4.0999999999999998e-01 2.5091382242338818e+00 4.9997328722356675e+00 2.1216997994553914e+01 4 3 4
2760 920 3 4.0999999999999998e-01 7.1061533326059827e+00 1.7877713208276109e+00 2.7841572287374049e+01 3 0 0
2631 877 3 4.0999999999999998e-01 2.3873149064224517e+00 3.9424601973547108e-01 3.0031159698796699e+01 2 1 -2
6299 2100 4 -8.1999999999999995e-01 2.2000759241153913e+00 5.1657657062806406e+00 2.3004444689139980e+01 2 3 3
3360 1120 3 4.0999999999999998e-01 9.3411547660583558e+00 5.9532336931233027e+00 2.5537588539181634e+01 -8 2 0
7039 2347 3 4.0999999999999998e-01 1.0027196991369673e+01 1.0053103112648920e+01 3.0497464907749233e+01 0 1 1
6280 2094 3 4.0999999999999998e-01 4.9732718992466891e+00 4.0233082153720652e+00 2.4205475687324373e+01 1 1 1
7109 2370 4 -8.1999999999999995e-01 5.0969237942721080e+00 6.6910982328531095e+00 2.6072284250578029e+01 -1 0 5
6298 2100 3 4.0999999999999998e-01 2.7605539250692517e+00 5.0017078573718710e+00 2.3860805068934162e+01 2 3 3
3921 1307 3 4.0999999999999998e-01 9.1400774026846872e+00 4.0572958864052255e+00 2.9269002524266106e+01 -7 2 3
5787 1929 3 4.0999999999999998e-01 2.5560560849161256e+00 8.2334522147484357e+00 2.6247702814020563e+01 4 3 1
5551 1851 3 4.0999999999999998e-01 1.9254868623182750e+00 9.0688039726299934e+00 2.4454031627195725e+01 2 2 -1
2515 839 3 4.0999999999999998e-01 9.3588133872254495e+00 4.7744936136785876e+00 2.2333344163628020e+01 0 0 2
958 320 3 4.0999999999999998e-01 3.0815931537206458e+00 2.7308451207636111e+00 2.7307646835670589e+01 1 2 -2
3479 1160 4 -8.1999999999999995e-01 4.6164708424929222e+00 1.0418039909870734e+01 2.2854602548194062e+01 1 -1 2
6300 2100 3 4.0999999999999998e-01 2.0077646816841455e+00 6.1531595116287532e+00 2.2862007770558790e+01 2 3 3
3920 1307 4 -8.1999999999999995e-01 8.4243238156773685e+00 3.7054678035647743e+00 2.9852519229330117e+01 -7 2 3
4574 1525 4 -8.1999999999999995e-01 1.2670074549446502e+00 6.6043147887198739e+00 2.8852239100691367e+01 -3 2 -2
2630 877 4 -8.1999999999999995e-01 1.4688928475830023e+00 8.8922182006637607e-01 3.0124271615497925e+01 2 1 -2
591 197 3 4.0999999999999998e-01 1.3554980237533754e+00 2.7759873987530290e+00 2.2059576826178279e+01 6 -2 -1
3204 1068 3 4.0999999999999998e-01 5.2915345604454647e+00 9.7844623690883186e+00 2.1499076350967091e+01 0 3 1
1284 428 3 4.0999999999999998e-01 8.8220049293561642e-01 9.4341120150318147e+00 2.8234978106560035e+01 0 3 -1
3274 1092 3 4.0999999999999998e-01 2.7928557644091145e-01 1.5200484331514446e+00 2.9357610025732313e+01 3 4 0
6893 2298 4 -8.1999999999999995e-01 9.4374878203690695e+00 3.5770031442210093e+00 2.3656841142773835e+01 -1 3 1
4299 1433 3 4.0999999999999998e-01 1.5059677599362238e+00 1.6326455620013229e+00 2.5800378505324449e+01 -4 1 2
6894 2298 3 4.0999999999999998e-01 1.0279927650124872e+01 3.1173852748600153e+00 2.3280017354592985e+01 -1 3 1
3478 1160 3 4.0999999999999998e-01 3.6538524166154205e+00 1.0531864539996533e+01 2.3129614057459349e+01 1 -1 2
1363 455 3 4.0999999999999998e-01 5.7206901006514608e+00 9.5353295544042194e+00 3.0104115486109112e+01 -2 2 0
5894 1965 4 -8.1999999999999995e-01 4.2652296053473417e+00 2.4952021409595631e+00 2.8542639247332456e+01 2 1 1
4298 1433 4 -8.1999999999999995e-01 5.6225095843832340e-01 1.4706561790683310e+00 2.5477486571184198e+01 -4 1 2
2758 920 3 4.0999999999999998e-01 7.1225622200182181e+00 3.8660289755624583e-01 2.8986377916722684e+01 3 0 0
1283 428 4 -8.1999999999999995e-01 1.7148341612959841e+00 1.0085797687650247e+01 2.8153720579477501e+01 0 3 -1
6623 2208 4 -8.1999999999999995e-01 8.5948281328071197e+00 1.0401404233703613e+00 2.3675128048488318e+01 -5 -3 1
3919 1307 3 4.0999999999999998e-01 8.6189204213178936e+00 3.3517805875886837e+00 3.0812238068941529e+01 -7 2 3
1325 442 4 -8.1999999999999995e-01 8.2616062442506291e+00 7.2241995318991439e+00 2.5489819984238093e+01 2 -2 -4
1993 665 3 4.0999999999999998e-01 5.6327304909899283e+00 9.3828709086262485e+00 2.3947690109824585e+01 -3 0 4