LAMMPS data file via write_data, version 5 Jun 2019, timestep = 15500000

7349 atoms
5 atom types
4899 bonds
2 bond types
2451 angles
2 angle types
1 impropers
1 improper types

1.5519297081455363e-01 4.1845807029189409e+01 xlo xhi
1.5469297081455124e-01 4.1845307029189406e+01 ylo yhi
1.5469297081455124e-01 4.1845307029189406e+01 zlo zhi

#Masses
#
#1 12.01
#2 40.08
#3 1.01
#4 16
#5 16
#
#Bond Coeffs # harmonic
#
#1 20.4246 1.3042
#2 22.965 1.012

Atoms # full

3833 1278 4 -8.1999999999999995e-01 4.6309591760724604e+00 3.6735831243906141e+00 8.9397090995472706e+00 2 1 -1
3291 1097 3 4.0999999999999998e-01 7.8422344305567684e+00 6.3869934600736178e+00 9.7073156290006288e+00 2 0 1
3109 1037 3 4.0999999999999998e-01 5.3043325486494650e+00 5.5016523894968206e-01 3.4456462309622107e+00 -1 1 -1
7205 2402 4 -8.1999999999999995e-01 4.1223953115771641e+00 4.9935222142157940e+00 6.5765102973746643e+00 -3 4 -1
5999 2000 4 -8.1999999999999995e-01 8.4039826376336990e-01 8.1112489528830221e+00 1.0413366626654033e+01 4 1 -1
2377 793 3 4.0999999999999998e-01 9.5079737211743076e+00 4.3033739411861127e+00 7.1837947669669511e+00 -5 -1 3
3832 1278 3 4.0999999999999998e-01 5.2864010539735240e+00 2.9107453024828027e+00 8.8880049757652166e+00 2 1 -1
6908 2303 4 -8.1999999999999995e-01 1.0546866440040342e+01 2.3024258605487953e+00 5.2475686480040418e-01 4 1 -4
1857 619 3 4.0999999999999998e-01 5.6948743463395557e+00 5.7652568570371736e+00 5.8696584204546278e+00 4 4 1
1441 481 3 4.0999999999999998e-01 9.8900721759012669e+00 3.8619910284873384e+00 9.7649297544616989e+00 1 1 1
2275 759 3 4.0999999999999998e-01 5.3707026465151078e+00 5.2385823183340019e+00 9.1603284768889957e+00 1 -2 -1
7231 2411 3 4.0999999999999998e-01 6.1659031566728491e+00 5.4511525500242115e+00 3.4661525898304855e+00 1 3 -2
6241 2081 3 4.0999999999999998e-01 2.5101525368116850e-01 6.7142056403675729e+00 8.7121634449128003e+00 3 -1 1
3834 1278 3 4.0999999999999998e-01 4.0235738313978340e+00 3.4781974870082761e+00 9.7369595518601333e+00 2 1 -1
1812 604 3 4.0999999999999998e-01 8.0698936710118296e+00 8.0197153203129119e+00 8.6575161144533350e+00 3 4 4
1671 557 3 4.0999999999999998e-01 1.7412325564135500e-01 1.1967510278487845e+00 6.6191273214493842e+00 1 5 2
2378 793 4 -8.1999999999999995e-01 1.0071538659119065e+01 4.2606897161877493e+00 8.0516036070174337e+00 -5 -1 3
2284 762 3 4.0999999999999998e-01 2.5839836929408020e+00 1.3218404693708323e+00 7.6344324884181214e+00 3 2 2
25 9 3 4.0999999999999998e-01 8.5449192342857501e+00 4.2240072533505764e+00 8.7213686737745244e-01 0 0 0
7204 2402 3 4.0999999999999998e-01 3.4947852104400683e+00 5.7223171059559936e+00 6.9457438735320345e+00 -3 4 -1
5976 1992 3 4.0999999999999998e-01 7.0160201232078530e+00 8.6492725505260264e+00 6.6249849140598087e+00 0 1 0
7327 2443 3 4.0999999999999998e-01 5.8875907248191544e+00 7.7254026852182067e-01 5.6066762837296720e+00 4 3 0
6107 2036 4 -8.1999999999999995e-01 2.5324097953898761e+00 2.8356175514832715e+00 6.7961183744996967e-01 -1 3 0
1185 395 3 4.0999999999999998e-01 8.6617640692091413e+00 1.0094202956587749e+01 4.2918830621148203e+00 -1 0 0
4615 1539 3 4.0999999999999998e-01 1.6024030345026699e+00 6.4467486207754972e+00 7.4838741434288050e+00 -3 -3 0
3110 1037 4 -8.1999999999999995e-01 5.5617205633852649e+00 1.4028108610752299e+00 4.0341496894613433e+00 -1 1 -1
1856 619 4 -8.1999999999999995e-01 6.5937767678711268e+00 5.8989293735444077e+00 5.3505110264632556e+00 4 4 1
3600 1200 3 4.0999999999999998e-01 4.6526751576760264e+00 8.0270220228775866e+00 1.0488279467918195e+01 5 -3 -1
3619 1207 3 4.0999999999999998e-01 1.7265376143492641e+00 6.9679584740990541e-01 5.2720152376335596e+00 4 0 2
3074 1025 4 -8.1999999999999995e-01 8.8910949762934965e+00 4.2643361235094268e+00 5.6331166485014759e+00 -1 2 -4
7328 2443 4 -8.1999999999999995e-01 6.4253174656313874e+00 4.6810529656735511e-01 6.4764934688862921e+00 4 3 0
199 67 3 4.0999999999999998e-01 1.0547901227398302e+01 8.3669515304637763e+00 4.7217082435968614e+00 -1 0 2
1379 460 4 -8.1999999999999995e-01 2.7836463817099273e+00 4.9022280686555035e+00 2.5324680080478381e+00 2 2 -1
6630 2210 3 4.0999999999999998e-01 4.8201347284600935e+00 7.1321378638001498e+00 3.4937782430307573e-01 0 -3 1
2537 846 4 -8.1999999999999995e-01 1.0431262805071699e+00 8.1877837240518438e+00 2.6137145231642891e+00 1 2 4
4816 1606 3 4.0999999999999998e-01 8.6177902052304312e+00 8.8042131944988822e-01 1.0033773785823382e+01 0 2 1
26 9 4 -8.1999999999999995e-01 8.7619724354645232e+00 4.5252795280568536e+00 1.7943821432421796e+00 0 0 0
5268 1756 3 4.0999999999999998e-01 5.5800321188501938e+00 2.7544908612135486e+00 1.8282530046940912e+00 -1 -3 0
2285 762 4 -8.1999999999999995e-01 2.5765824458952791e+00 1.2215998396003158e+00 8.6428187073870149e+00 3 2 2
3621 1207 3 4.0999999999999998e-01 1.7439649747755164e+00 2.2806568510419440e+00 5.5864529176619087e+00 4 0 2
7232 2411 4 -8.1999999999999995e-01 5.5093598088627989e+00 5.1433583108566614e+00 2.7488905443491030e+00 1 3 -2
2538 846 3 4.0999999999999998e-01 1.9340790912310792e+00 8.5236815319062345e+00 3.0259092713553848e+00 1 2 4
5742 1914 3 4.0999999999999998e-01 9.0226214257549788e+00 2.1094048949307167e+00 3.6835615899818830e+00 2 4 -1
4159 1387 3 4.0999999999999998e-01 2.0102082845815610e+00 4.2815431317829100e+00 3.9939228369176498e+00 3 2 -2
3792 1264 3 4.0999999999999998e-01 2.0254080359465445e+00 1.3151770154638132e+00 7.3524139289461454e-01 3 3 4
6278 2093 4 -8.1999999999999995e-01 8.6810564992643471e+00 7.1002930267499851e+00 2.4823419007049963e+00 0 -1 -1
5975 1992 4 -8.1999999999999995e-01 6.6787227017785966e+00 8.7116036897068660e+00 5.6545532250419681e+00 0 1 0
2286 762 3 4.0999999999999998e-01 1.9295142594907544e+00 1.9993729164832641e+00 8.9329493532901569e+00 3 2 2
6108 2036 3 4.0999999999999998e-01 3.4529730501273850e+00 2.3802564794675507e+00 7.3762514380882793e-01 -1 3 0
5401 1801 3 4.0999999999999998e-01 3.0496658953767484e+00 6.7229757169372331e+00 9.2521587429351673e+00 2 0 -4
6911 2304 4 -8.1999999999999995e-01 9.3467504134160817e-01 3.5515979476153250e+00 9.1510521604162474e+00 0 3 -1
6279 2093 3 4.0999999999999998e-01 7.9570537369672865e+00 7.5814690868936392e+00 2.0039898353289805e+00 0 -1 -1
6277 2093 3 4.0999999999999998e-01 8.5084893137447644e+00 6.0919271114767009e+00 2.3769969973076535e+00 0 -1 -1
4161 1387 3 4.0999999999999998e-01 2.6542367629563652e+00 4.1350752611834247e+00 5.5652723555121284e+00 3 2 -2
201 67 3 4.0999999999999998e-01 9.9364839282073305e+00 8.2360963233505533e+00 3.2180504496334699e+00 -1 0 2
2277 759 3 4.0999999999999998e-01 5.5829227122156411e+00 6.8522206327307806e+00 9.5693387750443843e+00 1 -2 -1
5549 1850 4 -8.1999999999999995e-01 3.1348984732345214e-01 6.5562618991436521e+00 4.7429355653653132e-01 2 1 2
6910 2304 3 4.0999999999999998e-01 6.7230216756915262e-01 4.3919613650403200e+00 8.6387906515799564e+00 0 3 -1
3735 1245 3 4.0999999999999998e-01 2.0624038314845481e+00 5.3794450390511295e-01 1.0227074086845857e+01 -7 0 1
3598 1200 3 4.0999999999999998e-01 4.9113194222832206e+00 9.2784121584479813e+00 9.4094341385177049e+00 5 -3 -1
1855 619 3 4.0999999999999998e-01 6.7130093772021215e+00 6.9538912331161864e+00 5.3129589304181168e+00 4 4 1
1810 604 3 4.0999999999999998e-01 6.7518146574758644e+00 9.0410157554678179e+00 8.9712614446414669e+00 3 4 4
3317 1106 4 -8.1999999999999995e-01 1.0345471859635631e+00 1.0556663567103939e+01 2.8413531236634249e-01 2 2 3
4617 1539 3 4.0999999999999998e-01 2.6399066716683861e+00 7.7397000596889898e+00 7.1434016399546953e+00 -3 -3 0
4947 1649 3 4.0999999999999998e-01 8.1637330399941210e-01 9.8721666525172918e+00 7.1040353349449248e+00 -2 2 2
3974 1325 4 -8.1999999999999995e-01 3.0995613170931233e+00 9.2259148815289720e+00 6.9333950756114131e+00 0 3 -1
7206 2402 3 4.0999999999999998e-01 4.3998026241293138e+00 4.3111723229003438e+00 7.2964562037773470e+00 -3 4 -1
5267 1756 4 -8.1999999999999995e-01 5.1926388545816895e+00 2.5809210842124521e+00 9.3400674177836207e-01 -1 -3 0
3073 1025 3 4.0999999999999998e-01 8.0290869084040395e+00 4.8452906773005253e+00 5.6487926929028474e+00 -1 2 -4
2397 799 3 4.0999999999999998e-01 9.2724209999144733e+00 6.6156661673033779e-01 8.1239335932621550e+00 1 1 1
3075 1025 3 4.0999999999999998e-01 8.7452451688905430e+00 3.7175074098110263e+00 4.7599371495688230e+00 -1 2 -4
1378 460 3 4.0999999999999998e-01 3.8334653307106028e+00 4.9293770249595097e+00 2.4427837193234625e+00 2 2 -1
3973 1325 3 4.0999999999999998e-01 3.6481129524842424e+00 9.5065786138316835e+00 6.1044149527832161e+00 0 3 -1
3620 1207 4 -8.1999999999999995e-01 1.6256902037946881e+00 1.3608703249096674e+00 6.0443808752819752e+00 4 0 2
6823 2275 3 4.0999999999999998e-01 3.8978968064541086e+00 3.2658873188642695e-01 8.9224393923162815e+00 2 1 -2
2479 827 3 4.0999999999999998e-01 5.5510693548693553e+00 3.2686948748097011e-01 1.0518373294172154e+01 6 0 -1
5403 1801 3 4.0999999999999998e-01 2.3283353916163634e+00 7.2751616312055631e+00 1.0565593043505274e+01 2 0 -4
4780 1594 3 4.0999999999999998e-01 8.4416305293782194e+00 9.4712884870449159e+00 4.0807289604806651e-01 -1 2 4
7233 2411 3 4.0999999999999998e-01 5.4582490817064127e+00 5.8060187701995360e+00 1.9229808501559842e+00 1 3 -2
2536 846 3 4.0999999999999998e-01 2.4403184113983187e-01 8.5294512726935228e+00 3.1573054605327839e+00 1 2 4
200 67 4 -8.1999999999999995e-01 1.0231379317314513e+01 8.9020554560713219e+00 3.9263983784173031e+00 -1 0 2
6106 2036 3 4.0999999999999998e-01 2.4103909977734568e+00 3.6744920897358488e+00 1.2935354264934702e+00 -1 3 0
6242 2081 4 -8.1999999999999995e-01 1.9393093209652632e-01 5.9836455638589152e+00 8.0272425636892546e+00 3 -1 1
4616 1539 4 -8.1999999999999995e-01 2.5772495236842867e+00 6.7461426470597869e+00 7.5882199323698689e+00 -3 -3 0
3111 1037 3 4.0999999999999998e-01 4.6245686590399426e+00 1.8361938069850536e+00 3.9276979663612468e+00 -1 1 -1
3290 1097 4 -8.1999999999999995e-01 8.7157888650080455e+00 6.6900844303846023e+00 9.1988909882382188e+00 2 0 1
1380 460 3 4.0999999999999998e-01 2.4126874132761302e+00 5.8027915878438714e+00 2.1460110370579004e+00 2 2 -1
857 286 4 -8.1999999999999995e-01 3.6456310185492677e+00 8.6642593912001864e+00 3.0658757346426473e+00 2 1 0
5740 1914 3 4.0999999999999998e-01 7.2795535519791077e+00 2.0606971977853044e+00 3.5051973765065587e+00 2 4 -1
6629 2210 4 -8.1999999999999995e-01 5.3774732731384267e+00 7.2157650758056446e+00 1.2250320124323708e+00 0 -3 1
5402 1801 4 -8.1999999999999995e-01 3.1344964721661932e+00 6.7094066953786502e+00 1.0255785117149847e+01 2 0 -4
4782 1594 3 4.0999999999999998e-01 7.0493130010358609e+00 9.6088107780988565e+00 1.3040861310797578e+00 -1 2 4
3289 1097 3 4.0999999999999998e-01 9.2333719351576224e+00 5.8899422229955434e+00 8.8813561788621787e+00 2 0 1
4160 1387 4 -8.1999999999999995e-01 1.8300904013453818e+00 3.8110926480752645e+00 4.9610330798564082e+00 3 2 -2
856 286 3 4.0999999999999998e-01 4.1937484354946459e+00 8.1206190223820851e+00 2.4183933732983744e+00 2 1 0
27 9 3 4.0999999999999998e-01 8.6355198707659309e+00 3.6536059417766831e+00 2.4190961269780291e+00 0 0 0
5741 1914 4 -8.1999999999999995e-01 8.1670186125460127e+00 2.5889792621648549e+00 3.3785880204057031e+00 2 4 -1
3975 1325 3 4.0999999999999998e-01 3.4172612591632308e+00 9.7997042569268782e+00 7.7676798750442071e+00 0 3 -1
1811 604 4 -8.1999999999999995e-01 7.6306291448889310e+00 8.9135105637868435e+00 8.4134879666781544e+00 3 4 4
6628 2210 3 4.0999999999999998e-01 6.2246005528732322e+00 7.8323511244519421e+00 9.8700067129611146e-01 0 -3 1
5974 1992 3 4.0999999999999998e-01 7.2491405898117351e+00 9.3904319248857142e+00 5.1533860288536548e+00 0 1 0
1942 648 3 4.0999999999999998e-01 5.5813116271021777e+00 9.7104870815078392e+00 5.2469388874704297e+00 2 0 3
6909 2303 3 4.0999999999999998e-01 1.0157050934754796e+01 1.3559471739240254e+00 6.9416041518731908e-01 4 1 -4
4781 1594 4 -8.1999999999999995e-01 7.5013801804194866e+00 9.0129995270534149e+00 5.5235930581060078e-01 -1 2 4
3791 1264 4 -8.1999999999999995e-01 1.9906775757620536e+00 2.5945143785493774e-01 9.4936577861539329e-01 3 3 4
5266 1756 3 4.0999999999999998e-01 5.9889032702014644e+00 2.6427443461177385e+00 2.5550390850558824e-01 -1 -3 0
2395 799 3 4.0999999999999998e-01 7.6224460414928599e+00 8.6104045313120381e-01 7.7511237819867205e+00 1 1 1
192 64 3 4.0999999999999998e-01 8.6102169459419962e+00 1.0436040735753975e+01 8.2454212603452728e+00 -2 3 4
5998 2000 3 4.0999999999999998e-01 5.2103302664151918e-01 8.9082004148718621e+00 9.8343173726895650e+00 4 1 -1
3599 1200 4 -8.1999999999999995e-01 5.3530065799603284e+00 8.5585816116877407e+00 1.0013649465353573e+01 5 -3 -1
2276 759 4 -8.1999999999999995e-01 5.9895512514960521e+00 5.9553389080805781e+00 9.5589167350898876e+00 1 -2 -1
5548 1850 3 4.0999999999999998e-01 3.5840803701107193e-01 7.1042607462607954e+00 1.3110758988710092e+00 2 1 2
4237 1413 3 4.0999999999999998e-01 9.8686142109684720e+00 5.9815596290258437e+00 5.2336508841922003e+00 0 0 -1
858 286 3 4.0999999999999998e-01 4.1575623496727134e+00 8.9146646222751702e+00 3.8821887214234190e+00 2 1 0
2396 799 4 -8.1999999999999995e-01 8.3034711263802912e+00 8.8289634334761524e-01 8.4915029774920896e+00 1 1 1
2205 735 3 4.0999999999999998e-01 1.7962646496878421e-01 3.8573453527919512e+00 4.3780426274135955e+00 2 -5 1
624 208 3 4.0999999999999998e-01 3.5644459090016691e+00 1.0433375731040284e+01 2.4308444498780646e+00 0 -2 5
1943 648 4 -8.1999999999999995e-01 4.6826373118120852e+00 1.0214124420206979e+01 5.0645926755259172e+00 2 0 3
5694 1898 3 4.0999999999999998e-01 9.2409988341918332e+00 6.1520236853186994e+00 1.2544274036317582e+01 -1 1 0
5225 1742 4 -8.1999999999999995e-01 4.9827098841360717e+00 2.9299171732318983e+00 1.2740189937019252e+01 3 -3 -2
5585 1862 4 -8.1999999999999995e-01 3.5549737936588506e+00 5.6575037572917255e+00 1.8053237705950323e+01 4 -1 0
4568 1523 4 -8.1999999999999995e-01 3.4457809626130769e+00 1.1179992148551918e+00 1.3539685192358967e+01 2 -2 -3
7214 2405 4 -8.1999999999999995e-01 7.8291194605276511e+00 7.5002275102135076e+00 1.6160212044943517e+01 3 -4 3
4679 1560 4 -8.1999999999999995e-01 4.8204852314877158e+00 7.0783660608377650e+00 1.5232341859007837e+01 1 -4 1
603 201 3 4.0999999999999998e-01 3.2791411326513504e+00 5.1663570396674041e+00 1.0866372207850091e+01 -2 -4 5
846 282 3 4.0999999999999998e-01 6.5067000934260735e+00 5.0603100675652586e+00 1.9725046331239330e+01 0 -2 -2
4644 1548 3 4.0999999999999998e-01 1.3458622425409208e+00 7.6127935022723507e+00 1.9790670761821271e+01 -2 -1 -3
4817 1606 4 -8.1999999999999995e-01 8.7020912667346231e+00 1.2857495987691812e+00 1.0969800903512384e+01 0 2 1
4678 1560 3 4.0999999999999998e-01 5.2325149306097494e+00 7.3530665549454728e+00 1.6101851826566996e+01 1 -4 1
6433 2145 3 4.0999999999999998e-01 2.8591148939416438e+00 8.9803280274902200e+00 1.3318856762301998e+01 2 3 1
5224 1742 3 4.0999999999999998e-01 4.3610520318615862e+00 3.5312121638685734e+00 1.2199401939013548e+01 3 -3 -2
1182 394 3 4.0999999999999998e-01 7.1333339792388530e+00 5.4331188216216164e+00 1.0977830930016829e+01 -4 0 1
5692 1898 3 4.0999999999999998e-01 1.0495036826096470e+01 7.2588221443514636e+00 1.2628707831851333e+01 -1 1 0
4769 1590 4 -8.1999999999999995e-01 1.2894623476703031e+00 4.8463655171154478e+00 2.0867151008041525e+01 4 -2 2
3373 1125 3 4.0999999999999998e-01 8.1059013951047270e+00 1.2821110075310498e+00 1.7893163288582908e+01 -1 1 -1
4642 1548 3 4.0999999999999998e-01 1.7368994607054073e+00 8.0406822313580051e+00 1.8198771949780536e+01 -2 -1 -3
6435 2145 3 4.0999999999999998e-01 1.2669828769452871e+00 8.2115461491633503e+00 1.3248746294218936e+01 2 3 1
95 32 4 -8.1999999999999995e-01 4.0721378776245016e+00 1.0278198492977412e+01 1.2798303517957232e+01 -1 2 -2
844 282 3 4.0999999999999998e-01 4.9434130737285322e+00 5.5204989117986329e+00 1.9152733224258778e+01 0 -2 -2
5226 1742 3 4.0999999999999998e-01 5.5066990659156465e+00 2.3013373569527174e+00 1.2134544842262049e+01 3 -3 -2
4567 1523 3 4.0999999999999998e-01 3.8389835602322799e+00 1.6139587809382400e-01 1.3727968157322552e+01 2 -2 -3
4921 1641 3 4.0999999999999998e-01 2.1696959332267305e+00 4.5663351084845551e+00 1.4991507355541925e+01 1 1 4
3733 1245 3 4.0999999999999998e-01 2.5240082611157453e+00 8.5649993626224696e-01 1.1795554694539522e+01 -7 0 1
2642 881 4 -8.1999999999999995e-01 8.5830068167160096e+00 9.0772286560482058e+00 1.3831909061923263e+01 0 4 4
6434 2145 4 -8.1999999999999995e-01 2.1158496940887108e+00 8.4759351443305420e+00 1.3778957968677052e+01 2 3 1
4442 1481 4 -8.1999999999999995e-01 3.2516314514620830e+00 1.9344799432071942e+00 1.7567940008104866e+01 1 2 -1
5693 1898 4 -8.1999999999999995e-01 9.6931313773606291e+00 6.8217856547500606e+00 1.3160141926263725e+01 -1 1 0
1622 541 4 -8.1999999999999995e-01 8.0549329975441495e+00 2.9934507665749552e+00 1.5483177057674341e+01 5 1 0
7213 2405 3 4.0999999999999998e-01 8.2119465886366960e+00 6.6623397203322936e+00 1.5796049406276934e+01 3 -4 3
5029 1677 3 4.0999999999999998e-01 8.5675645588134568e+00 1.5236994432679793e+00 2.0371743569853582e+01 2 3 0
2643 881 3 4.0999999999999998e-01 9.0197645724912103e+00 8.2834691583730891e+00 1.3320950399755327e+01 0 4 4
3929 1310 4 -8.1999999999999995e-01 1.5293646658889319e+00 8.9876158973468581e+00 1.6457257849276374e+01 2 -4 1
828 276 3 4.0999999999999998e-01 6.2925522824930153e+00 9.1502793839128724e+00 2.0274426129366155e+01 3 -1 0
6979 2327 3 4.0999999999999998e-01 5.7753074850425543e+00 5.4532471896591268e+00 1.4231007407046137e+01 2 2 -2
1623 541 3 4.0999999999999998e-01 7.5538704078585406e+00 3.5566130970991860e+00 1.4741310385855266e+01 5 1 0
6550 2184 3 4.0999999999999998e-01 6.2902860009517170e+00 2.2006527601727086e+00 1.8072750156038023e+01 1 -1 1
1621 541 3 4.0999999999999998e-01 7.4615535136358515e+00 2.2530396737786194e+00 1.5923873025554704e+01 5 1 0
5030 1677 4 -8.1999999999999995e-01 8.8935257602236693e+00 2.3118004903595950e+00 2.0915064643216819e+01 2 3 0
845 282 4 -8.1999999999999995e-01 5.5666222350719456e+00 5.2767487881735065e+00 1.9998849873048385e+01 0 -2 -2
3930 1310 3 4.0999999999999998e-01 1.7499974480049458e+00 8.7719996091181738e+00 1.5475837781923483e+01 2 -4 1
5255 1752 4 -8.1999999999999995e-01 8.8133584401265761e+00 7.2592140666948648e+00 1.8610475814002164e+01 1 2 0
4950 1650 3 4.0999999999999998e-01 9.8643901962021001e+00 2.6615401991411756e+00 1.4586145340756676e+01 5 -3 -3
4680 1560 3 4.0999999999999998e-01 3.9551400594829507e+00 7.6737735276646069e+00 1.5113479535504704e+01 1 -4 1
4441 1481 3 4.0999999999999998e-01 4.0266259655481234e+00 1.9362232627062892e+00 1.8208130834345337e+01 1 2 -1
4593 1531 3 4.0999999999999998e-01 7.4467146417495744e+00 1.0214616655827752e+01 1.3976422996513504e+01 3 -2 1
3288 1096 3 4.0999999999999998e-01 8.2594009217990483e-01 1.6900440242865284e+00 1.5774996087478089e+01 1 -2 -7
3656 1219 4 -8.1999999999999995e-01 4.9940152647787199e+00 9.2768108428281568e+00 1.8971231217246505e+01 -4 2 1
4818 1606 3 4.0999999999999998e-01 9.3204561136321740e+00 2.0550879366197403e+00 1.0836682478626967e+01 0 2 1
7215 2405 3 4.0999999999999998e-01 8.2873541817476308e+00 7.5145414137890398e+00 1.7106134497642135e+01 3 -4 3
3374 1125 4 -8.1999999999999995e-01 8.8162836102604469e+00 9.2769122902783840e-01 1.8625622343478391e+01 -1 1 -1
5775 1925 3 4.0999999999999998e-01 5.4843913713985537e-01 2.5152337220386953e+00 1.7396511907527803e+01 -1 0 1
3480 1160 3 4.0999999999999998e-01 5.8069340389643003e+00 1.6295807877857718e+00 2.0137206446418435e+01 2 -1 0
3478 1160 3 4.0999999999999998e-01 5.0098143333210201e+00 3.1433389405552332e+00 1.9979591237249814e+01 2 -1 0
3655 1219 3 4.0999999999999998e-01 4.0015197896983237e+00 8.9985433810402480e+00 1.9006469460537215e+01 -4 2 1
2480 827 4 -8.1999999999999995e-01 5.9342238569635288e+00 1.1263041657263877e+00 1.1047209330083229e+01 6 0 -1
6212 2071 4 -8.1999999999999995e-01 9.6491867757845124e+00 4.4891997891293389e+00 1.6983420155172094e+01 1 -2 -1
5256 1752 3 4.0999999999999998e-01 8.6148263039474635e+00 6.3757545776169735e+00 1.9120586767191423e+01 1 2 0
4643 1548 4 -8.1999999999999995e-01 2.1190548466197896e+00 7.7012759111577358e+00 1.9097215442945860e+01 -2 -1 -3
3657 1219 3 4.0999999999999998e-01 4.9540910120864954e+00 1.0114013452953518e+01 1.8404718825182307e+01 -4 2 1
6551 2184 4 -8.1999999999999995e-01 6.5724656796389986e+00 1.6306542244460451e+00 1.7232745055110009e+01 1 -1 1
6213 2071 3 4.0999999999999998e-01 8.9012097464925208e+00 4.2442957051219352e+00 1.6377360785543484e+01 1 -2 -1
6539 2180 4 -8.1999999999999995e-01 7.8852519060146351e+00 1.0269021814580270e+01 1.6605164900110388e+01 1 0 1
4923 1641 3 4.0999999999999998e-01 3.4843577872318550e+00 5.5073322084491760e+00 1.5253385494522993e+01 1 1 4
3286 1096 3 4.0999999999999998e-01 1.9181859138059998e+00 9.7064910324031684e-01 1.6596879761075744e+01 1 -2 -7
4922 1641 4 -8.1999999999999995e-01 2.7915816410079928e+00 4.8971725891049145e+00 1.5745281260366392e+01 1 1 4
4305 1435 3 4.0999999999999998e-01 8.7191078142894796e+00 4.6134143976563475e+00 1.8653395101877710e+01 0 3 2
4948 1650 3 4.0999999999999998e-01 1.0415808002086063e+01 3.3590497367246512e+00 1.3177077109799532e+01 5 -3 -3
94 32 3 4.0999999999999998e-01 5.0684101548247069e+00 1.0179899541027021e+01 1.3069979494913488e+01 -1 2 -2
2641 881 3 4.0999999999999998e-01 8.4871051604821304e+00 8.6212762097399072e+00 1.4741841477548816e+01 0 4 4
3287 1096 4 -8.1999999999999995e-01 9.6677477752147489e-01 8.5879444035443941e-01 1.6332673782600867e+01 1 -2 -7
602 201 4 -8.1999999999999995e-01 3.1713316145109522e+00 4.1855396230923692e+00 1.1145739808063576e+01 -2 -4 5
6552 2184 3 4.0999999999999998e-01 6.0322962306163861e+00 8.1032746170099257e-01 1.7409930265009159e+01 1 -1 1
1180 394 3 4.0999999999999998e-01 7.1250443818981166e+00 4.6726920632746243e+00 1.2384195031109256e+01 -4 0 1
2481 827 3 4.0999999999999998e-01 6.9410200716234289e+00 9.9119953876811862e-01 1.1129148427275217e+01 6 0 -1
6981 2327 3 4.0999999999999998e-01 5.7667603216303931e+00 3.9122611558296407e+00 1.3759566880517911e+01 2 2 -2
5586 1862 3 4.0999999999999998e-01 2.9651376208310198e+00 6.3235524207932157e+00 1.8568690439536162e+01 4 -1 0
1181 394 4 -8.1999999999999995e-01 7.7439736191822286e+00 4.9085928211382006e+00 1.1592065082642566e+01 -4 0 1
4443 1481 3 4.0999999999999998e-01 2.8905965074003293e+00 2.9198384133137512e+00 1.7526449743215711e+01 1 2 -1
826 276 3 4.0999999999999998e-01 7.3227105148305576e+00 1.0395865886067739e+01 2.0654883694943930e+01 3 -1 0
4569 1523 3 4.0999999999999998e-01 4.2512742382365660e+00 1.7616116771930541e+00 1.3294827268196881e+01 2 -2 -3
3928 1310 3 4.0999999999999998e-01 5.0423683926821405e-01 9.2879655130842433e+00 1.6421801588215725e+01 2 -4 1
320 107 4 -8.1999999999999995e-01 1.1835682140598245e+00 2.6802862359969630e+00 1.4378751266780835e+01 1 -1 -1
4304 1435 4 -8.1999999999999995e-01 8.3562257903708357e+00 4.6812837304588903e+00 1.9597062578874425e+01 0 3 2
6980 2327 4 -8.1999999999999995e-01 6.3990777627370639e+00 4.6359874566425168e+00 1.4122356991577639e+01 2 2 -2
5584 1862 3 4.0999999999999998e-01 3.2286840417680001e+00 5.4224054188284239e+00 1.7097149089119355e+01 4 -1 0
3479 1160 4 -8.1999999999999995e-01 5.3784367617325177e+00 2.2927275546234887e+00 1.9451239771179051e+01 2 -1 0
5254 1752 3 4.0999999999999998e-01 9.7109723409880608e+00 7.5464921047147229e+00 1.8992841049181493e+01 1 2 0
321 107 3 4.0999999999999998e-01 8.3403400885388601e-01 3.2333859552677393e+00 1.3573412207358404e+01 1 -1 -1
319 107 3 4.0999999999999998e-01 1.9296798317440560e+00 2.0807437743848518e+00 1.3955411506413380e+01 1 -1 -1
3375 1125 3 4.0999999999999998e-01 9.6860365259604002e+00 1.4936390101501438e+00 1.8591353587650229e+01 -1 1 -1
1443 481 3 4.0999999999999998e-01 9.1181009949664915e+00 4.4442227931834521e+00 1.1081087034737017e+01 1 1 1
4768 1590 3 4.0999999999999998e-01 2.2227531526659070e+00 4.7232558398395028e+00 2.0366222644413995e+01 4 -2 2
4303 1435 3 4.0999999999999998e-01 8.4035720027052587e+00 3.8239313072802892e+00 2.0134301462754028e+01 0 3 2
3957 1319 3 4.0999999999999998e-01 4.1688623712026313e-01 1.0263355430253640e+01 1.9394191294671106e+01 0 -1 1
6538 2180 3 4.0999999999999998e-01 7.6478823857197034e+00 9.2716165937620652e+00 1.6784922883098400e+01 1 0 1
3734 1245 4 -8.1999999999999995e-01 1.7723249282307270e+00 3.9412633584580181e-01 1.1245775781793879e+01 -7 0 1
5246 1749 4 -8.1999999999999995e-01 1.0422940293081751e+01 3.0758257298506747e-01 1.4391696922237328e+01 0 0 3
1442 481 4 -8.1999999999999995e-01 1.0010185055329460e+01 3.9303117670514340e+00 1.0820980643061366e+01 1 1 1
6211 2071 3 4.0999999999999998e-01 1.0069390870944940e+01 5.3696602387237711e+00 1.6582350459978073e+01 1 -2 -1
5994 1998 3 4.0999999999999998e-01 2.3618391527607496e+00 1.0550162811321078e+01 1.7056871813992089e+01 -2 0 -2
6336 2112 3 4.0999999999999998e-01 1.0414470589956871e+01 6.6160553805049869e+00 1.4638292491296461e+01 1 2 2
601 201 3 4.0999999999999998e-01 2.3165794432648528e+00 3.7966433081132989e+00 1.0766989300717473e+01 -2 -4 5
6558 2186 3 4.0999999999999998e-01 9.7774296807302790e+00 4.8242883168146324e+00 2.0947717193392336e+01 -1 -1 0
6411 2137 3 4.0999999999999998e-01 6.1972329974373865e+00 1.0442005863406660e+01 1.0581155425471250e+01 0 0 -2
2578 860 3 4.0999999999999998e-01 8.9423478804593231e+00 1.5144537100056319e+00 2.4245616197755282e+01 1 4 1
3920 1307 4 -8.1999999999999995e-01 8.5706699034227167e+00 1.1615798068438892e+00 2.7319881778442902e+01 -5 1 2
5217 1739 3 4.0999999999999998e-01 8.2018461645851790e+00 4.0088779943418507e+00 2.4658031842023931e+01 0 -2 0
6512 2171 4 -8.1999999999999995e-01 2.0923900023922659e+00 4.5229101211875129e+00 2.4087060392852354e+01 0 1 -3
3376 1126 3 4.0999999999999998e-01 8.1172850355061037e+00 2.5856192238854692e+00 2.2344575997368306e+01 0 -2 3
2579 860 4 -8.1999999999999995e-01 9.8114472961275982e+00 1.0860147644828817e+00 2.4426426480475410e+01 1 4 1
6883 2295 3 4.0999999999999998e-01 3.1556253463766422e+00 7.4315480624345396e+00 2.8842623943024272e+01 -2 0 2
7157 2386 4 -8.1999999999999995e-01 5.7978399622632395e+00 2.0168933882205100e+00 2.4308767758819759e+01 -1 -1 3
7202 2401 4 -8.1999999999999995e-01 4.1216183352202460e+00 3.7931404604368892e+00 2.1496936083971534e+01 0 -1 2
3213 1071 3 4.0999999999999998e-01 4.0440543164686558e+00 1.9923218853640663e+00 2.1673662882728600e+01 -4 1 2
6511 2171 3 4.0999999999999998e-01 1.8686207021693702e+00 4.0307943887337681e+00 2.3205801977578822e+01 0 1 -3
851 284 4 -8.1999999999999995e-01 3.0553383527843865e+00 3.7384340016725717e+00 2.8200601215819070e+01 0 2 1
5215 1739 3 4.0999999999999998e-01 8.2652828444376478e+00 4.8246140359054142e+00 2.6047730932240025e+01 0 -2 0
3211 1071 3 4.0999999999999998e-01 5.1418801241035226e+00 6.4806590984455192e-01 2.1735121186698859e+01 -4 1 2
1587 529 3 4.0999999999999998e-01 8.3367401239756660e+00 8.5976436703416219e+00 2.5440702875310443e+01 -1 -1 -1
808 270 3 4.0999999999999998e-01 9.2605953688720337e+00 6.3286999969419906e+00 2.5064974570121663e+01 1 -1 -6
6755 2252 4 -8.1999999999999995e-01 1.0343112026635204e+01 5.0241414337674941e+00 2.8310857728587326e+01 2 1 1
266 89 4 -8.1999999999999995e-01 3.5095107117958502e-01 5.7491891289984789e+00 3.0084171800695362e+01 3 3 -5
3477 1159 3 4.0999999999999998e-01 6.4552656065736391e+00 1.0155965535799609e+01 2.2785110251899571e+01 2 -1 -2
2227 743 3 4.0999999999999998e-01 2.6633613488209522e+00 3.0037073174225157e+00 2.4841558989548119e+01 1 0 1
4207 1403 3 4.0999999999999998e-01 7.1622587537853848e+00 5.4149772606789472e+00 2.9175584668673718e+01 0 2 -1
809 270 4 -8.1999999999999995e-01 9.4421512705628370e+00 7.3798460395310999e+00 2.5019129306869502e+01 1 -1 -6
3419 1140 4 -8.1999999999999995e-01 5.3412896413763642e+00 6.7638108663693224e+00 2.6423257847868868e+01 -1 4 0
3418 1140 3 4.0999999999999998e-01 4.4334523954703835e+00 6.7296195789150497e+00 2.6912983521716232e+01 -1 4 0
5059 1687 3 4.0999999999999998e-01 8.7729501693122014e+00 2.4473540713796744e+00 3.0252631408453222e+01 1 2 -2
5917 1973 3 4.0999999999999998e-01 7.3758127166331651e+00 8.8155365710344533e+00 2.9759206355353939e+01 2 1 3
7156 2386 3 4.0999999999999998e-01 4.7758732280576943e+00 2.1201285413742506e+00 2.4470578969315330e+01 -1 -1 3
3377 1126 4 -8.1999999999999995e-01 7.8507070193642345e+00 2.8830234474974739e+00 2.3298579933899916e+01 0 -2 3
6033 2011 3 4.0999999999999998e-01 1.0387746491196355e+01 6.5686667764270359e+00 2.8005973598702120e+01 5 -1 -1
1713 571 3 4.0999999999999998e-01 4.5658428995797964e+00 5.9603119388283625e+00 2.4630953887300965e+01 -2 0 3
3420 1140 3 4.0999999999999998e-01 5.6963992412033999e+00 7.7061412116919641e+00 2.6627298686721982e+01 -1 4 0
914 305 4 -8.1999999999999995e-01 5.6608261584004591e+00 3.6577919275840940e+00 3.0815091604219731e+01 1 0 2
6756 2252 3 4.0999999999999998e-01 9.6623125653920727e+00 4.4391593141063908e+00 2.8808932443261284e+01 2 1 1
3582 1194 3 4.0999999999999998e-01 1.1157675322632759e+00 5.9028189918101495e+00 2.6579493001541547e+01 0 -3 5
3581 1194 4 -8.1999999999999995e-01 1.1093482825057781e+00 4.8629356127137209e+00 2.6568758163296447e+01 0 -3 5
810 270 3 4.0999999999999998e-01 9.6445959858531136e+00 7.6437002968941510e+00 2.4081036767292016e+01 1 -1 -6
683 228 4 -8.1999999999999995e-01 6.9105926223704008e+00 4.8569172665148033e+00 2.7414393543051641e+01 -1 -3 -1
660 220 3 4.0999999999999998e-01 1.6688867406617791e+00 7.5155065019995453e+00 2.7351302984673172e+01 2 2 1
7203 2401 3 4.0999999999999998e-01 4.1221514442264544e+00 3.8957225861746383e+00 2.2518165032252274e+01 0 -1 2
2516 839 4 -8.1999999999999995e-01 5.4104699075649254e+00 2.5546157535235920e+00 2.7296490211741311e+01 0 0 1
7158 2386 3 4.0999999999999998e-01 6.0560545833586943e+00 1.0085009919170957e+00 2.4137659318229048e+01 -1 -1 3
6744 2248 3 4.0999999999999998e-01 7.4618225623970824e+00 2.5048220804465327e-01 3.0902532995600733e+01 1 2 -1