LAMMPS data file via write_data, version 5 Jun 2019, timestep = 4500000

7349 atoms
5 atom types
4899 bonds
2 bond types
2451 angles
2 angle types
1 impropers
1 improper types

1.5519297081455363e-01 4.1845807029189409e+01 xlo xhi
1.5469297081455124e-01 4.1845307029189406e+01 ylo yhi
1.5469297081455124e-01 4.1845307029189406e+01 zlo zhi

#Masses
#
#1 12.01
#2 40.08
#3 1.01
#4 16
#5 16
#
#Bond Coeffs # harmonic
#
#1 20.4246 1.3042
#2 22.965 1.012

Atoms # full

854 285 4 -8.1999999999999995e-01 1.0177667574709666e+01 9.9153207174587603e+00 4.9904265712281513e+00 0 -2 1
7225 2409 3 4.0999999999999998e-01 5.5660249861238622e+00 2.8190728106201814e+00 2.6492186236666688e+00 -1 1 -1
1910 637 4 -8.1999999999999995e-01 3.1977762274505293e+00 2.9868680830492105e+00 9.8122497571461302e+00 0 -1 1
4364 1455 4 -8.1999999999999995e-01 4.2872655457165809e+00 9.0932919795669420e+00 4.2026873310279145e+00 0 1 1
6101 2034 4 -8.1999999999999995e-01 5.7091126314077618e+00 2.0955851602968161e+00 1.2328354869270777e+00 1 3 1
1835 612 4 -8.1999999999999995e-01 1.4408111757222155e+00 4.4851035232782372e+00 5.0959108031525240e+00 1 0 -1
1834 612 3 4.0999999999999998e-01 5.8080004065110058e-01 3.9428077866264442e+00 5.1041525802901813e+00 1 0 -1
1446 482 3 4.0999999999999998e-01 7.4976517837020769e+00 1.4200999754332788e+00 6.9806313428330959e+00 1 2 0
5739 1913 3 4.0999999999999998e-01 8.1720622785240735e+00 7.2685808586851053e+00 5.6101666071207905e+00 1 0 -1
7054 2352 3 4.0999999999999998e-01 8.7031956988123138e+00 7.8684213180947280e+00 8.3646165874157603e+00 -1 -1 3
3954 1318 3 4.0999999999999998e-01 3.5603255733318582e+00 5.3782348778905487e+00 1.3526592634055330e+00 1 1 1
5737 1913 3 4.0999999999999998e-01 8.5691858310568350e+00 6.3490237155180278e+00 4.1839255845527017e+00 1 0 -1
5261 1754 4 -8.1999999999999995e-01 9.6882456419743761e+00 9.4649281765950573e+00 2.1976032633463802e+00 3 1 1
190 64 3 4.0999999999999998e-01 6.3615041527121319e+00 5.0002974454352582e+00 7.6812753904753324e+00 -1 1 1
4655 1552 4 -8.1999999999999995e-01 6.4889348441929737e+00 5.3050014036272568e+00 9.5168866973640327e+00 -1 -1 1
3100 1034 3 4.0999999999999998e-01 6.1717945748518357e+00 2.9735621361430962e+00 6.5435371058170748e+00 -1 2 2
6144 2048 3 4.0999999999999998e-01 9.0786259847560729e+00 5.4346531558463393e+00 1.5538866666899882e+00 1 -2 0
1444 482 3 4.0999999999999998e-01 8.5600160620961745e+00 4.5971325751079350e-01 6.5420695219236737e+00 1 2 0
521 174 4 -8.1999999999999995e-01 3.2431213818370469e-01 1.5035530136423751e+00 7.6450425511062248e+00 1 0 -1
192 64 3 4.0999999999999998e-01 7.2708168731618681e+00 5.0483091116868906e+00 6.3061092212947392e+00 -1 1 1
4363 1455 3 4.0999999999999998e-01 4.0001757688568178e+00 8.9842338411147438e+00 3.1891811916437414e+00 0 1 1
1982 661 4 -8.1999999999999995e-01 1.0134046574887627e+01 9.6477388947835578e+00 1.0222459021947596e+01 2 1 1
7056 2352 3 4.0999999999999998e-01 8.2068156085338675e+00 8.8184686712486524e+00 7.2160476176711965e+00 -1 -1 3
5931 1977 3 4.0999999999999998e-01 9.9632004376377825e+00 4.3423451522401679e+00 9.3950078551161091e+00 -1 -2 2
4365 1455 3 4.0999999999999998e-01 3.6697344132352945e+00 8.5546480831524061e+00 4.7748136041309905e+00 0 1 1
736 246 3 4.0999999999999998e-01 5.3607129797903470e+00 9.4374335045380899e+00 1.2646257809483723e+00 0 -1 0
4889 1630 4 -8.1999999999999995e-01 2.2898953143289553e+00 5.1041812786267684e+00 7.6377464864299824e+00 1 -1 0
6143 2048 4 -8.1999999999999995e-01 9.7738475492305898e+00 5.2941629041324907e+00 8.6726934210230244e-01 1 -2 0
1493 498 4 -8.1999999999999995e-01 5.4743640839105057e-01 8.8209449159001139e+00 3.6502720331821767e+00 -1 2 0
1494 498 3 4.0999999999999998e-01 1.3747320500940174e+00 8.3110505438155595e+00 3.4139447835322856e+00 -1 2 0
7055 2352 4 -8.1999999999999995e-01 8.5684308796999531e+00 7.8537133687169964e+00 7.2889620188487187e+00 -1 -1 3
872 291 4 -8.1999999999999995e-01 2.6107370059525103e+00 7.0337860428067520e+00 5.4905808427299130e+00 3 2 2
5207 1736 4 -8.1999999999999995e-01 6.1517091291020631e-01 5.7217421672159006e+00 2.0461472563254435e+00 1 1 -1
4586 1529 4 -8.1999999999999995e-01 5.8347345845806684e+00 5.8107653783683322e+00 3.5525393941603203e+00 -2 1 1
3762 1254 3 4.0999999999999998e-01 2.6439060046248284e+00 2.0385669393021719e+00 2.6487074426559065e+00 1 -1 -1
5738 1913 4 -8.1999999999999995e-01 8.0093634537362561e+00 7.1176489709514117e+00 4.6141310123166503e+00 1 0 -1
323 108 4 -8.1999999999999995e-01 7.7203567011057013e+00 1.0278292788371031e+01 6.4691845795129606e+00 -1 -1 2
737 246 4 -8.1999999999999995e-01 4.4002232064408506e+00 9.7407712669256128e+00 1.2606498075954415e+00 0 -1 0
4400 1467 4 -8.1999999999999995e-01 8.5737171619782870e+00 2.3044839713676368e+00 2.3900782575152264e+00 -1 -1 3
2010 670 3 4.0999999999999998e-01 4.2562838607762741e+00 7.7035898458809564e+00 9.2241186707577416e+00 1 -2 2
2167 723 3 4.0999999999999998e-01 1.0375827231291293e+01 7.6088025004148934e+00 7.9632612567148007e+00 1 1 -1
6100 2034 3 4.0999999999999998e-01 5.3370138791769612e+00 2.7775861831908020e+00 5.2883804110968990e-01 1 3 1
403 135 3 4.0999999999999998e-01 8.7207691549675537e-01 4.5482759493243821e+00 8.6355011566106850e+00 2 0 0
902 301 4 -8.1999999999999995e-01 1.1314059961570548e+00 8.1348139107458675e+00 7.4547789994137146e+00 0 -1 -1
6276 2092 3 4.0999999999999998e-01 7.1849336497792153e+00 8.7907582419457793e+00 4.0824309482899750e+00 0 1 2
4587 1529 3 4.0999999999999998e-01 6.6329004002435292e+00 6.2446168034088370e+00 4.0278134531897951e+00 -2 1 1
1607 536 4 -8.1999999999999995e-01 1.4806951162427033e+00 1.0490766766346136e+01 6.3366847979186112e+00 -1 0 1
1591 531 3 4.0999999999999998e-01 6.8475609157481028e+00 5.2140216339661567e+00 3.6436500965982854e-01 1 2 -1
1412 471 4 -8.1999999999999995e-01 6.3322214648025688e-01 3.5574531869534733e+00 3.2488794039724550e-01 -1 0 0
1911 637 3 4.0999999999999998e-01 2.9829618487564979e+00 3.6862864052628130e+00 9.0680148463422352e+00 0 -1 1
867 289 3 4.0999999999999998e-01 4.2133218588170491e+00 6.5141690079334733e+00 3.0649791151161159e+00 0 1 1
5260 1754 3 4.0999999999999998e-01 1.0399637763553004e+01 9.7083802507607402e+00 1.5286166882791110e+00 3 1 1
3760 1254 3 4.0999999999999998e-01 2.8345172819315225e+00 3.6010104716247482e+00 2.2406565050876615e+00 1 -1 -1
4654 1552 3 4.0999999999999998e-01 6.8582057384414457e+00 4.3727669756729393e+00 9.7236820070936645e+00 -1 -1 1
5888 1963 4 -8.1999999999999995e-01 1.0654401162804867e+00 8.3484424428942372e+00 1.0459329967465086e+01 2 1 -2
871 291 3 4.0999999999999998e-01 2.1282969666566527e+00 6.1191409268150689e+00 5.4954529163989472e+00 3 2 2
5559 1853 3 4.0999999999999998e-01 5.4999237018068428e+00 5.3033519523554884e-01 6.5896023613180388e+00 2 2 -2
7227 2409 3 4.0999999999999998e-01 4.2172968890401910e+00 3.2640127050907179e+00 3.6563980228640269e+00 -1 1 -1
1593 531 3 4.0999999999999998e-01 6.0639471553903297e+00 6.0701730648527317e+00 1.7478758996147232e+00 1 2 -1
5621 1874 4 -8.1999999999999995e-01 3.0619441545263451e+00 4.7917722504419552e-01 2.2818028917685589e+00 -1 -1 0
520 174 3 4.0999999999999998e-01 1.1894005672302137e+00 1.1251208662995502e+00 8.1056335964759008e+00 1 0 -1
6236 2079 4 -8.1999999999999995e-01 7.2845975922534558e+00 8.8261496715976424e+00 6.6906854133289773e-01 1 3 2
3101 1034 4 -8.1999999999999995e-01 6.0271084162796251e+00 2.0637646278312674e+00 6.1663991118918142e+00 -1 2 2
855 285 3 4.0999999999999998e-01 9.9004574964091194e+00 9.7738642498253672e+00 3.9988834805590376e+00 0 -2 1
865 289 3 4.0999999999999998e-01 2.9033299828310843e+00 6.7212370973137769e+00 3.8915066098927218e+00 0 1 1
5262 1754 3 4.0999999999999998e-01 9.9994632337607818e+00 8.5698642646045720e+00 2.6141021178138066e+00 3 1 1
4888 1630 3 4.0999999999999998e-01 2.8304146561841272e+00 5.9759354711446511e+00 7.4485508149368851e+00 1 -1 0
3102 1034 3 4.0999999999999998e-01 5.7271970959822731e+00 2.2951407794919594e+00 5.1932544717799169e+00 -1 2 2
1445 482 4 -8.1999999999999995e-01 8.2520877385026630e+00 8.7783511014546367e-01 7.3738611144515085e+00 1 2 0
3953 1318 4 -8.1999999999999995e-01 3.6067634958623369e+00 4.4668641179691591e+00 9.3056985107092016e-01 1 1 1
2008 670 3 4.0999999999999998e-01 4.0745847248354705e+00 8.1387337810787184e+00 7.6604732300839808e+00 1 -2 2
3761 1254 4 -8.1999999999999995e-01 2.5139305548042605e+00 2.9687981515687860e+00 2.9917539717852879e+00 1 -1 -1
5208 1736 3 4.0999999999999998e-01 5.9047235849581670e-01 4.7257404094562263e+00 1.7471054547029259e+00 1 1 -1
866 289 4 -8.1999999999999995e-01 3.2163627818583893e+00 6.5791918296553726e+00 2.9156210682596457e+00 0 1 1
2009 670 4 -8.1999999999999995e-01 3.8326532555586863e+00 7.4551554791419834e+00 8.3337756035595234e+00 1 -2 2
1836 612 3 4.0999999999999998e-01 1.9612332495788645e+00 4.0479153217520860e+00 4.2399130277271926e+00 1 0 -1
6275 2092 4 -8.1999999999999995e-01 6.9778159495445813e+00 9.7377761883602716e+00 3.7980009018524483e+00 0 1 2
6803 2268 4 -8.1999999999999995e-01 5.1767060192960068e+00 9.7866931220649125e+00 6.8924180144246892e+00 -2 -3 0
324 108 3 4.0999999999999998e-01 8.1795253355171500e+00 1.0395515004463816e+01 5.5444949411247650e+00 -1 -1 2
4890 1630 3 4.0999999999999998e-01 1.9588528844823820e+00 4.6907480339407392e+00 6.6984307582342320e+00 1 -1 0
738 246 3 4.0999999999999998e-01 3.9526786165908692e+00 9.2802511032438186e+00 4.9963986927170756e-01 0 -1 0
6804 2268 3 4.0999999999999998e-01 6.2363430736192349e+00 9.7199018008926359e+00 6.9823596412795172e+00 -2 -3 0
6802 2268 3 4.0999999999999998e-01 4.9596223732634890e+00 9.4861456243999953e+00 5.9357480776678475e+00 -2 -3 0
1034 345 4 -8.1999999999999995e-01 9.3630180768124252e+00 4.9123337055336371e+00 3.8659240161264461e+00 0 0 1
4259 1420 4 -8.1999999999999995e-01 2.8259821423038840e+00 7.6155532676530935e-01 8.2153649415146486e+00 2 0 2
4258 1420 3 4.0999999999999998e-01 3.7216333445185623e+00 4.1168426883352416e-01 7.8205994404444485e+00 2 0 2
191 64 4 -8.1999999999999995e-01 6.6896265690656875e+00 4.4656537507627911e+00 6.8913525541514895e+00 -1 1 1
6102 2034 3 4.0999999999999998e-01 5.8033763947724495e+00 1.1230069619716005e+00 8.7891387479819960e-01 1 3 1
1592 531 4 -8.1999999999999995e-01 6.4751563470688662e+00 6.0793404656589800e+00 7.6562399379555035e-01 1 2 -1
7226 2409 4 -8.1999999999999995e-01 5.3032568940791931e+00 3.2155296829656823e+00 3.5363989277448948e+00 -1 1 -1
1608 536 3 4.0999999999999998e-01 1.2489091553029414e+00 1.0204042437898083e+01 5.3918660780366778e+00 -1 0 1
4656 1552 3 4.0999999999999998e-01 5.5640462186340818e+00 5.2965608712056982e+00 9.9565936465802629e+00 -1 -1 1
1035 345 3 4.0999999999999998e-01 1.0306085211254745e+01 4.6370787723435267e+00 4.2298285393658528e+00 0 0 1
5334 1778 3 4.0999999999999998e-01 9.5585798819362484e+00 6.2511372274368036e+00 1.0264754080991990e+01 -1 -1 0
4401 1467 3 4.0999999999999998e-01 7.5548611611818091e+00 2.2358686588660222e+00 2.3355329076587825e+00 -1 -1 3
6274 2092 3 4.0999999999999998e-01 5.9512277410633940e+00 9.8630627351332834e+00 3.9721015650159583e+00 0 1 2
4585 1529 3 4.0999999999999998e-01 5.8557967673800713e+00 4.7988310398153340e+00 3.7929690457254854e+00 -2 1 1
873 291 3 4.0999999999999998e-01 2.0712098235664267e+00 7.5649846836016899e+00 6.1759924652962859e+00 3 2 2
4399 1467 3 4.0999999999999998e-01 8.9544001885983207e+00 1.9053088889628562e+00 1.5430752123294225e+00 -1 -1 3
5929 1977 3 4.0999999999999998e-01 8.6681595205666913e+00 3.9625893459945383e+00 8.2726959690023207e+00 -1 -2 2
5206 1736 3 4.0999999999999998e-01 1.5208763429267853e+00 6.1701931261677156e+00 1.8203101118247191e+00 1 1 -1
1606 536 3 4.0999999999999998e-01 1.5005195648146539e+00 9.5708415944115117e+00 6.8169944838386671e+00 -1 0 1
1033 345 3 4.0999999999999998e-01 8.8564226718885681e+00 4.0012985285110183e+00 3.7420421200292586e+00 0 0 1
5333 1778 4 -8.1999999999999995e-01 8.7137462260026055e+00 6.8102084945445753e+00 9.9306942306011372e+00 -1 -1 0
6237 2079 3 4.0999999999999998e-01 7.7102121827646011e+00 9.0788970211664690e+00 1.5877344524742705e+00 1 3 2
903 301 3 4.0999999999999998e-01 1.2054625288756284e+00 7.9981479755096174e+00 8.4813883399233401e+00 0 -1 -1
5332 1778 3 4.0999999999999998e-01 7.8743587276305842e+00 6.2021403026989814e+00 9.7123627537047952e+00 -1 -1 0
6235 2079 3 4.0999999999999998e-01 7.4023092777739201e+00 7.9096476821999264e+00 3.1770734044545856e-01 1 3 2
4260 1420 3 4.0999999999999998e-01 2.9901697665069440e+00 1.5089671050432392e+00 8.8999730103125465e+00 2 0 2
5930 1977 4 -8.1999999999999995e-01 9.6353764284898009e+00 3.7777114720542402e+00 8.5704268748813259e+00 -1 -2 2
5620 1874 3 4.0999999999999998e-01 4.0936308681564393e+00 2.0785350845021672e-01 2.4454080407993182e+00 -1 -1 0
5444 1815 4 -8.1999999999999995e-01 4.9783249314191016e+00 9.4663521528027328e-01 1.0494674228863529e+01 3 0 2
5443 1815 3 4.0999999999999998e-01 4.2991539683731546e+00 1.7626228767631154e+00 1.0415646947704834e+01 3 0 2
6457 2153 3 4.0999999999999998e-01 1.0390316683521535e+01 6.4702474164531179e+00 3.1813488503558696e+00 0 -1 1
7179 2393 3 4.0999999999999998e-01 8.9225856730613184e+00 8.8342937918036235e-01 4.1996819971156167e+00 2 1 -1
522 174 3 4.0999999999999998e-01 3.9751904851560260e-01 1.2747618020514120e+00 6.6777619378326705e+00 1 0 -1
334 112 3 4.0999999999999998e-01 1.5992647279082051e+00 9.5730260372947438e+00 3.5421954065198991e-01 2 -2 1
6005 2002 4 -8.1999999999999995e-01 1.7770815613245743e+00 8.0686607900149188e+00 1.4404997189954207e+01 1 1 -2
6690 2230 3 4.0999999999999998e-01 1.2577986428605199e+00 2.2830745475411782e+00 1.7836833894443583e+01 2 -2 -1
6203 2068 4 -8.1999999999999995e-01 2.5133136818053403e+00 5.3953569180955174e+00 1.5229837995615686e+01 1 2 0
142 48 3 4.0999999999999998e-01 4.9531361130759510e+00 2.9364053156083720e+00 1.8832900404542432e+01 -1 3 1
2812 938 3 4.0999999999999998e-01 1.0002785534754027e+01 1.8520916327760464e-01 1.7787730398663573e+01 0 0 -1
2806 936 3 4.0999999999999998e-01 2.3369528882392214e+00 6.9048480622498465e-01 1.6863787297566667e+01 3 0 1
4379 1460 4 -8.1999999999999995e-01 4.2094352528878263e+00 6.6764479163099733e+00 1.7595410922146272e+01 2 0 0
6608 2203 4 -8.1999999999999995e-01 6.7280890668036326e+00 6.5498833015736553e+00 1.7870473878064605e+01 1 -1 -1
6706 2236 3 4.0999999999999998e-01 2.5590337401093635e+00 7.5769142161854024e+00 1.3082585481504738e+01 0 -1 1
6004 2002 3 4.0999999999999998e-01 7.5266174438682065e-01 8.0522120090025275e+00 1.4413151701891792e+01 1 1 -2
2089 697 3 4.0999999999999998e-01 7.9489893349660257e+00 7.9272477291891175e-01 1.7575478046059210e+01 0 2 1
3429 1143 3 4.0999999999999998e-01 6.9293805887937108e+00 3.7524451108607004e+00 1.2137135331721854e+01 2 1 -1
3427 1143 3 4.0999999999999998e-01 6.3589964567597894e+00 4.7937863404656635e+00 1.3372141803043855e+01 2 1 -1
232 78 3 4.0999999999999998e-01 5.0782941927562426e+00 4.1112440488865918e+00 1.6938953161408815e+01 2 2 -1
7256 2419 4 -8.1999999999999995e-01 9.4220882500120897e+00 5.4431304585295122e+00 1.3625215420082226e+01 0 1 2
6707 2236 4 -8.1999999999999995e-01 2.9878353416853627e+00 7.2805579534998719e+00 1.2132462117354361e+01 0 -1 1
6985 2329 3 4.0999999999999998e-01 2.3900297697504804e+00 3.3710168523125126e+00 1.2939114176601542e+01 -1 0 1
1627 543 3 4.0999999999999998e-01 9.4622000881715831e+00 3.1792476734939781e+00 1.6893055971214260e+01 0 3 0
235 79 3 4.0999999999999998e-01 2.5402427698654755e+00 6.7012733417361261e+00 2.0334007195024068e+01 2 0 1
6811 2271 3 4.0999999999999998e-01 2.0756346360914724e+00 4.8615971341327524e-01 1.9416418744852891e+01 0 -1 0
4289 1430 4 -8.1999999999999995e-01 4.3640766843262977e+00 9.2239161870936588e+00 1.0928564333283827e+01 1 -2 0
5043 1681 3 4.0999999999999998e-01 7.7180150872039821e+00 7.8102690937188592e+00 1.1583280706447393e+01 2 0 -2
4290 1430 3 4.0999999999999998e-01 3.7045926671044302e+00 9.9461449068661825e+00 1.0844937793739030e+01 1 -2 0
5749 1917 3 4.0999999999999998e-01 4.2427572433730987e+00 8.9992373594694204e+00 1.5000222501047823e+01 1 1 1
3018 1006 3 4.0999999999999998e-01 6.9133408755781494e+00 3.2162168445722341e+00 1.5935376964117980e+01 1 0 -2
5366 1789 4 -8.1999999999999995e-01 3.2127425353885419e+00 1.0443125613270476e+01 1.4940657099067394e+01 -2 1 3
6202 2068 3 4.0999999999999998e-01 2.2636082468909002e+00 6.3088279971433439e+00 1.4752818654735158e+01 1 2 0
3587 1196 4 -8.1999999999999995e-01 1.0361629353088338e+01 4.3648771959004007e+00 1.8747722530519336e+01 1 0 1
1629 543 3 4.0999999999999998e-01 8.7557884509380859e+00 4.4346545224595388e+00 1.6105006414334920e+01 0 3 0
6204 2068 3 4.0999999999999998e-01 2.2021731944748431e+00 5.4910077463670159e+00 1.6201006955920302e+01 1 2 0
2090 697 4 -8.1999999999999995e-01 7.6487251826956335e+00 5.7417213305961357e-01 1.6596619462289951e+01 0 2 1
144 48 3 4.0999999999999998e-01 4.6900440866576432e+00 3.2064685392340460e+00 2.0481150933233348e+01 -1 3 1
1197 399 3 4.0999999999999998e-01 5.6637140925975054e+00 1.2602002369342673e+00 1.9986133114988561e+01 1 1 0
4798 1600 3 4.0999999999999998e-01 4.1516454233990627e+00 1.0187150132438104e+01 1.8245214580130160e+01 -2 0 -1
7255 2419 3 4.0999999999999998e-01 9.1007699856507092e+00 6.1568982445422451e+00 1.4266095758975473e+01 0 1 2
1449 483 3 4.0999999999999998e-01 1.0403489275852300e+01 9.8555459461892063e+00 1.5892937677691149e+01 2 0 0
6450 2150 3 4.0999999999999998e-01 8.8016844014192408e+00 2.2323020249645897e+00 1.4359775980821928e+01 1 -1 2
6688 2230 3 4.0999999999999998e-01 2.4585031240740918e+00 3.3420457201182425e+00 1.7840584058595876e+01 2 -2 -1
3428 1143 4 -8.1999999999999995e-01 7.0435839268008236e+00 4.0866321683957407e+00 1.3038503407142617e+01 2 1 -1
6006 2002 3 4.0999999999999998e-01 2.2010193418138817e+00 8.9741598386122412e+00 1.4652935103489709e+01 1 1 -2
2682 894 3 4.0999999999999998e-01 5.2005647577569638e+00 6.6055236290085189e+00 1.4332510363946369e+01 2 2 -1
2681 894 4 -8.1999999999999995e-01 5.0627459672633206e+00 5.5909936619957170e+00 1.4178615837323262e+01 2 2 -1
7292 2431 4 -8.1999999999999995e-01 9.5660863497758388e+00 9.7792548847322287e+00 1.8910833306944614e+01 -2 1 -1
6453 2151 3 4.0999999999999998e-01 8.3761698213710769e+00 1.5592386764981330e+00 2.0056887388089315e+01 -1 0 1
6689 2230 4 -8.1999999999999995e-01 1.4935838378905431e+00 3.2993732200632517e+00 1.8060994549106312e+01 2 -2 -1
6369 2123 3 4.0999999999999998e-01 8.5846441571343970e+00 7.9243702916352978e+00 2.0535244598675348e+01 -1 0 0
5864 1955 4 -8.1999999999999995e-01 7.1370223974005036e+00 2.7953144773527723e+00 1.0615268782705243e+01 -1 0 -1
4616 1539 4 -8.1999999999999995e-01 6.8455419657603294e+00 8.8267060251405489e+00 1.9645091218972080e+01 -1 1 0
5041 1681 3 4.0999999999999998e-01 7.3171816429331553e+00 9.4266973825633951e+00 1.1567679991972851e+01 2 0 -2
1196 399 4 -8.1999999999999995e-01 5.5490731601557739e+00 2.7234076573053706e-01 2.0114984388139380e+01 1 1 0
2399 800 4 -8.1999999999999995e-01 7.5008682318892852e+00 4.2828071924223261e+00 1.9425834346490912e+01 1 0 1
2091 697 3 4.0999999999999998e-01 7.1729229869920523e+00 1.3771192456125698e+00 1.6189903696388168e+01 0 2 1
143 48 4 -8.1999999999999995e-01 5.4419044894651281e+00 2.9133269689667554e+00 1.9793977537627452e+01 -1 3 1
7257 2419 3 4.0999999999999998e-01 8.6523646911411394e+00 4.7202305205425574e+00 1.3462581592252949e+01 0 1 2
6448 2150 3 4.0999999999999998e-01 1.0264596915348765e+01 1.8538297597460742e+00 1.4716671070418384e+01 1 -1 2
2680 894 3 4.0999999999999998e-01 4.0712527062387780e+00 5.3709760672448139e+00 1.4404431277412485e+01 2 2 -1
638 213 4 -8.1999999999999995e-01 8.6690188010848725e+00 6.5202554872906848e+00 1.6181670372837583e+01 1 0 1
3946 1316 3 4.0999999999999998e-01 3.2091554187557865e+00 2.1014045011469484e+00 1.5148059387143562e+01 2 -1 0
6987 2329 3 4.0999999999999998e-01 2.7059007886233037e+00 3.9287963849006959e+00 1.4427019289535043e+01 -1 0 1
637 213 3 4.0999999999999998e-01 7.8643381647032715e+00 6.5329731748347077e+00 1.6806837266884951e+01 1 0 1
3017 1006 4 -8.1999999999999995e-01 6.3323658662700328e+00 2.7311949130660684e+00 1.5254618081857544e+01 1 0 -2
6451 2151 3 4.0999999999999998e-01 9.4681445280541503e+00 6.6356362594633456e-01 1.9170467158003433e+01 -1 0 1
2100 700 3 4.0999999999999998e-01 1.4440233770475719e+00 9.6221127075669823e+00 1.7487120214786628e+01 -2 1 2
2098 700 3 4.0999999999999998e-01 1.9741059779948258e+00 8.9031150988456886e+00 1.8782583429113970e+01 -2 1 2
3016 1006 3 4.0999999999999998e-01 6.3808217596082191e+00 3.1726715397809775e+00 1.4329646391998365e+01 1 0 -2
6609 2203 3 4.0999999999999998e-01 5.7022627124328356e+00 6.5141713645051915e+00 1.7644333360740532e+01 1 -1 -1
6449 2150 4 -8.1999999999999995e-01 9.6080815279141092e+00 1.8001101390643270e+00 1.3940575026354313e+01 1 -1 2
5751 1917 3 4.0999999999999998e-01 5.8065699542905005e+00 8.6205245773907162e+00 1.5015377983054400e+01 1 1 1
4617 1539 3 4.0999999999999998e-01 6.8686395310119224e+00 8.1102303738803432e+00 1.8878794952639371e+01 -1 1 0
2619 873 3 4.0999999999999998e-01 3.4666806318181784e+00 5.7038978416223634e+00 1.1380467157631550e+01 0 1 0
4378 1460 3 4.0999999999999998e-01 3.6200286602550520e+00 6.7852893110693548e+00 1.8380590418565316e+01 2 0 0
1628 543 4 -8.1999999999999995e-01 8.6692522442142401e+00 3.4675144656121630e+00 1.6309102449916452e+01 0 3 0
233 78 4 -8.1999999999999995e-01 4.4176547218162456e+00 3.4786776050208132e+00 1.7406348501964246e+01 2 2 -1
639 213 3 4.0999999999999998e-01 9.1077197494238256e+00 7.4587381780132285e+00 1.6198823540541081e+01 1 0 1
6452 2151 4 -8.1999999999999995e-01 8.6463344425474453e+00 1.2511636193542675e+00 1.9101465971957879e+01 -1 0 1
234 78 3 4.0999999999999998e-01 4.2807094594351076e+00 2.8163101382772364e+00 1.6646920438099961e+01 2 2 -1
5496 1832 3 4.0999999999999998e-01 7.5208481394569180e+00 9.3190140746757848e+00 1.3757270554755555e+01 1 1 -2
5495 1832 4 -8.1999999999999995e-01 7.3473990123591939e+00 9.3564434609575393e+00 1.4783853300652849e+01 1 1 -2
3947 1316 4 -8.1999999999999995e-01 3.4622953057299855e+00 1.3010741476404344e+00 1.5765364844788351e+01 2 -1 0
5750 1917 4 -8.1999999999999995e-01 4.8612379516876203e+00 8.1873910096697262e+00 1.5229773445194706e+01 1 1 1
6986 2329 4 -8.1999999999999995e-01 2.6417141089297242e+00 3.0589156631219780e+00 1.3883902801024622e+01 -1 0 1
5887 1963 3 4.0999999999999998e-01 1.7400516263780994e+00 7.8062330313807342e+00 1.0923537253259003e+01 2 1 -2
2807 936 4 -8.1999999999999995e-01 1.6298796990332645e+00 6.5322216991259674e-01 1.7561715625238477e+01 3 0 1
2280 760 3 4.0999999999999998e-01 1.0411207050058479e+01 2.2097636859678729e+00 1.2309284482070446e+01 1 1 1
414 138 3 4.0999999999999998e-01 4.5083667313265952e-01 9.3420135101616186e-01 1.1555498418980537e+01 2 0 1
5494 1832 3 4.0999999999999998e-01 8.2649673980783280e+00 9.1710069170252382e+00 1.5218355079418888e+01 1 1 -2
5865 1955 3 4.0999999999999998e-01 8.0638942782313414e+00 2.3916724985325892e+00 1.0797054618427966e+01 -1 0 -1
4615 1539 3 4.0999999999999998e-01 5.9871427048764199e+00 9.4288404509080497e+00 1.9464534766611990e+01 -1 1 0
2618 873 4 -8.1999999999999995e-01 4.0959177000572495e+00 4.8769875441415325e+00 1.1508084744962762e+01 0 1 0
2099 700 4 -8.1999999999999995e-01 2.0749330453655435e+00 9.7208687272764003e+00 1.8219635048137636e+01 -2 1 2
6607 2203 3 4.0999999999999998e-01 6.9597884640512842e+00 5.7386780063674214e+00 1.8407970057733955e+01 1 -1 -1
237 79 3 4.0999999999999998e-01 1.2149250028309382e+00 7.1300486776591203e+00 1.9598488814492235e+01 2 0 1
7291 2431 3 4.0999999999999998e-01 8.5688551207776200e+00 1.0011993873308230e+01 1.8765761259126798e+01 -2 1 -1
4380 1460 3 4.0999999999999998e-01 4.2597263504205420e+00 7.4354853072149778e+00 1.6978308651012114e+01 2 0 0
6708 2236 3 4.0999999999999998e-01 3.4708697483877646e+00 8.1061483237742262e+00 1.1775071674175493e+01 0 -1 1
236 79 4 -8.1999999999999995e-01 2.2077910565591323e+00 7.3426598678202035e+00 1.9602246706208703e+01 2 0 1
3588 1196 3 4.0999999999999998e-01 9.4108870863137390e+00 4.7781146025448065e+00 1.8601259038897698e+01 1 0 1
2400 800 3 4.0999999999999998e-01 8.0186442414263883e+00 3.9124059136660483e+00 2.0258266464960986e+01 1 0 1
5445 1815 3 4.0999999999999998e-01 4.4993561677577114e+00 2.2542028540159859e-01 1.1097534778875016e+01 3 0 2
2279 760 4 -8.1999999999999995e-01 9.9856837522349107e+00 2.3075620434791309e+00 1.1381026504441694e+01 1 1 1
2617 873 3 4.0999999999999998e-01 4.5150389973889542e+00 5.1450550109054261e+00 1.2385124340760102e+01 0 1 0
6367 2123 3 4.0999999999999998e-01 8.1834276134863835e+00 6.2571675782611029e+00 2.0449312059922729e+01 -1 0 0
4288 1430 3 4.0999999999999998e-01 5.2152739734636802e+00 9.7746111088051606e+00 1.0660676392028066e+01 1 -2 0
5042 1681 4 -8.1999999999999995e-01 7.7340467716738850e+00 8.6629420679521250e+00 1.2131467125418050e+01 2 0 -2
2398 800 3 4.0999999999999998e-01 6.6198004977519993e+00 3.7777444785676466e+00 1.9460030776297440e+01 1 0 1
5889 1963 3 4.0999999999999998e-01 8.5592410003554553e-01 9.2025344950851125e+00 1.1012674771878627e+01 2 1 -2
6368 2123 4 -8.1999999999999995e-01 8.9077534485144856e+00 6.9592098749830740e+00 2.0542599927800190e+01 -1 0 0
1448 483 4 -8.1999999999999995e-01 9.9562078041909032e+00 9.0626404945573853e+00 1.6404462434922561e+01 2 0 0
6319 2107 3 4.0999999999999998e-01 1.0478319338207838e+01 4.2307879685962728e+00 1.1188865495069303e+01 2 0 1
4799 1600 4 -8.1999999999999995e-01 5.0084737093800875e+00 1.0407503796800103e+01 1.8793838274326102e+01 -2 0 -1
7293 2431 3 4.0999999999999998e-01 9.7316768214731262e+00 9.5834985957645227e+00 1.9903578376013883e+01 -2 1 -1
1447 483 3 4.0999999999999998e-01 9.9884527869792290e+00 9.2466074615798970e+00 1.7457761889920995e+01 2 0 0
3948 1316 3 4.0999999999999998e-01 4.1925505291967688e+00 7.0524333671884942e-01 1.5391021830741149e+01 2 -1 0
5032 1678 3 4.0999999999999998e-01 6.3317262066594013e+00 8.1620677380148727e+00 2.0914753091530734e+01 1 1 0
1983 661 3 4.0999999999999998e-01 9.6843673648820801e+00 8.7960281437635910e+00 1.0580378157611129e+01 2 1 1
5863 1955 3 4.0999999999999998e-01 6.3446738784307328e+00 2.1723696552688336e+00 1.0839459786417633e+01 -1 0 -1
1909 637 3 4.0999999999999998e-01 3.3750181506803343e+00 3.4861706002958406e+00 1.0670902973952305e+01 0 -1 1
6320 2107 4 -8.1999999999999995e-01 1.0571033746319591e+01 5.0748130909158622e+00 1.0619853723764979e+01 2 0 1
5266 1756 3 4.0999999999999998e-01 7.3819212374745451e+00 1.2769007452077878e+00 2.6114108971229278e+01 -1 -1 1
5673 1891 3 4.0999999999999998e-01 7.0691689751167042e+00 7.4837196716603689e+00 2.5909793188898306e+01 2 -1 0
655 219 3 4.0999999999999998e-01 4.4022487249061477e+00 9.8278766703323601e+00 2.8551612221595704e+01 1 1 0
3190 1064 3 4.0999999999999998e-01 3.0963134415752935e+00 6.4405325781042135e+00 2.2501386579812479e+01 -1 2 -1
6896 2299 4 -8.1999999999999995e-01 1.0405597939221886e+01 8.5654614360303594e+00 2.9146945205864515e+01 1 -2 -1
5734 1912 3 4.0999999999999998e-01 7.2002266574704308e+00 3.3540114532779923e+00 2.5296766279354848e+01 -1 0 -1
5579 1860 4 -8.1999999999999995e-01 1.9788418863801718e+00 6.7511932911973016e+00 3.0683172718423489e+01 0 1 -2
5683 1895 3 4.0999999999999998e-01 4.5078724357139928e+00 4.5053572217934477e+00 3.0981839108163118e+01 0 1 3
5735 1912 4 -8.1999999999999995e-01 7.2895717551352437e+00 4.2888388086921152e+00 2.4867264446622009e+01 -1 0 -1
3510 1170 3 4.0999999999999998e-01 5.2698851849248980e+00 8.2367744587229161e+00 2.4946512540414300e+01 1 -1 0
4620 1540 3 4.0999999999999998e-01 8.5228999939201255e+00 2.9364076044804577e+00 2.7516904914090201e+01 1 1 0
4619 1540 4 -8.1999999999999995e-01 7.8168324766150548e+00 2.3856363157003866e+00 2.6993990170594813e+01 1 1 0
5671 1891 3 4.0999999999999998e-01 7.1557971451636471e+00 5.7790431936563325e+00 2.5964428705460392e+01 2 -1 0
2166 722 3 4.0999999999999998e-01 7.2066816827530502e+00 7.9755191208380465e+00 3.0585647642406272e+01 0 0 1
2937 979 3 4.0999999999999998e-01 1.8426253890074116e+00 3.4494257256717731e-01 2.2129748645711096e+01 2 1 -1
2936 979 4 -8.1999999999999995e-01 1.0712963317876667e+00 7.7545496449233375e-01 2.2613957048370452e+01 2 1 -1
3705 1235 3 4.0999999999999998e-01 8.7809678567396290e+00 5.6496947905617327e+00 2.9007439324153079e+01 -2 1 -1
5780 1927 4 -8.1999999999999995e-01 4.0822738438824491e+00 1.5817034372853751e+00 3.0543889554736914e+01 1 -1 0
1670 557 4 -8.1999999999999995e-01 2.2236071885915876e+00 3.1507413980453172e+00 2.5958318479776739e+01 1 2 1
5578 1860 3 4.0999999999999998e-01 2.7942784978245672e+00 6.6110197504995121e+00 3.0070655917507139e+01 0 1 -2
1669 557 3 4.0999999999999998e-01 2.0905987167834388e+00 2.7027700666086361e+00 2.6947344640952242e+01 1 2 1
4750 1584 3 4.0999999999999998e-01 2.4696871077373353e-01 9.7159874026116810e+00 2.8874631707216011e+01 0 0 -1
5034 1678 3 4.0999999999999998e-01 5.0977333418982553e+00 8.4648814270915711e+00 2.2014655696328148e+01 1 1 0
6548 2183 4 -8.1999999999999995e-01 3.5111651213892499e+00 3.1189421191796134e+00 2.1448722568781324e+01 1 0 0
2633 878 4 -8.1999999999999995e-01 5.7534125051321441e+00 4.2367644543348870e+00 2.2841943798721960e+01 -1 0 0
6832 2278 3 4.0999999999999998e-01 3.2061836377255921e+00 4.7357316857087053e+00 2.6073958816503172e+01 0 1 -1
5243 1748 4 -8.1999999999999995e-01 7.7956612707025510e+00 7.9407321206970884e+00 2.8761138921669488e+01 0 -1 -1
1351 451 3 4.0999999999999998e-01 4.6222090367432385e+00 2.9887822358392296e-01 2.2355012904955210e+01 1 -1 -1
2339 780 4 -8.1999999999999995e-01 8.0732366226027832e+00 2.4443108662464570e+00 2.1767377576253935e+01 1 1 -2
6834 2278 3 4.0999999999999998e-01 4.5640101973530980e+00 4.4682294392433892e+00 2.6675327752225112e+01 0 1 -1
3509 1170 4 -8.1999999999999995e-01 4.3871495126234565e+00 8.0885098318745072e+00 2.5428856345890214e+01 1 -1 0