LAMMPS data file via write_data, version 5 Jun 2019, timestep = 20500000

7349 atoms
5 atom types
4899 bonds
2 bond types
2451 angles
2 angle types
1 impropers
1 improper types

1.5519297081455363e-01 4.1845807029189409e+01 xlo xhi
1.5469297081455124e-01 4.1845307029189406e+01 ylo yhi
1.5469297081455124e-01 4.1845307029189406e+01 zlo zhi

#Masses
#
#1 12.01
#2 40.08
#3 1.01
#4 16
#5 16
#
#Bond Coeffs # harmonic
#
#1 20.4246 1.3042
#2 22.965 1.012

Atoms # full

1275 425 3 4.0999999999999998e-01 2.5531384022299712e+00 1.9620077644786245e+00 6.6619577914252304e+00 5 4 0
4862 1621 4 -8.1999999999999995e-01 6.2070532221119139e+00 1.8890484661103542e+00 1.7720541171054438e+00 1 -1 2
7162 2388 3 4.0999999999999998e-01 5.2647988560150383e+00 7.3490551315855299e+00 9.7370062829884638e+00 -3 2 0
2072 691 4 -8.1999999999999995e-01 3.7286531930731694e+00 2.9834448337208990e+00 2.2255050472367612e+00 -2 4 8
2796 932 3 4.0999999999999998e-01 9.8912537693207323e+00 9.1464960744952872e+00 5.5064622690051470e+00 -2 1 4
6010 2004 3 4.0999999999999998e-01 1.0379158041510198e+01 4.1876974560642068e+00 7.7405662128997221e+00 3 -1 2
2330 777 4 -8.1999999999999995e-01 9.4937299222763514e+00 7.5674225125121195e+00 5.5724314718470209e+00 -1 -1 -1
1301 434 4 -8.1999999999999995e-01 3.8908862615003472e+00 7.7459015472300461e+00 1.0537284089240066e+01 -1 1 1
3208 1070 3 4.0999999999999998e-01 1.5991834501094366e+00 9.6387999578644443e+00 8.4228778031154068e+00 -2 -2 -1
4659 1553 3 4.0999999999999998e-01 2.8493167114464111e+00 7.2204463230735962e+00 2.3837685581725307e+00 1 2 2
2506 836 3 4.0999999999999998e-01 7.8600244034688627e-01 7.3818044484610921e+00 1.0305591672784894e+01 1 2 4
3643 1215 3 4.0999999999999998e-01 7.6507079671032407e+00 5.0773191936657758e-01 4.1494097320404819e+00 3 -1 6
40 14 3 4.0999999999999998e-01 3.9267739665259804e+00 5.8948578795303215e+00 3.7756727033387403e+00 0 -3 -3
3705 1235 3 4.0999999999999998e-01 4.0149048664775755e+00 3.8700140275993417e-01 6.5361753876486279e+00 -1 1 2
5464 1822 3 4.0999999999999998e-01 9.6875391698906999e+00 1.1411416732125892e+00 3.4887675925083794e+00 -1 -3 -4
437 146 4 -8.1999999999999995e-01 9.2736447410148326e+00 6.5713603665912679e+00 2.7312109656127905e+00 -1 0 3
4658 1553 4 -8.1999999999999995e-01 2.0732276963562537e+00 7.8504565545328733e+00 2.2970719950681695e+00 1 2 2
4422 1474 3 4.0999999999999998e-01 3.4580804139246074e-01 3.6280778288665640e+00 2.8775672723858978e+00 -1 3 3
2515 839 3 4.0999999999999998e-01 2.0535000788276805e+00 9.2922961317250419e+00 5.3126584457979886e+00 1 1 2
1273 425 3 4.0999999999999998e-01 1.2573540762048985e+00 2.0610513421609582e+00 7.7184253400220344e+00 5 4 0
4520 1507 4 -8.1999999999999995e-01 7.1925844381939212e+00 7.7494502388440907e+00 6.6993751455870205e+00 -5 0 3
2113 705 3 4.0999999999999998e-01 8.1621151766448801e+00 2.5900490365569770e+00 9.9376806068986827e+00 1 -3 2
7059 2353 3 4.0999999999999998e-01 6.2590084787199514e+00 3.9961737822444650e+00 9.8985807712388123e+00 -2 1 1
6909 2303 3 4.0999999999999998e-01 1.6176059730517731e+00 2.3023904676749396e-01 5.1466219894330871e+00 3 2 -5
2517 839 3 4.0999999999999998e-01 6.2615560785499580e-01 8.8214007207581915e+00 5.1553707304935461e+00 1 1 2
6020 2007 4 -8.1999999999999995e-01 3.8442182383830699e+00 4.9750186364981053e+00 2.6579495751867999e-01 -2 2 1
3423 1141 3 4.0999999999999998e-01 1.8890977985579549e+00 7.3545991468901208e+00 6.2212646393622251e+00 -5 -4 1
2329 777 3 4.0999999999999998e-01 8.6022688334959199e+00 7.5405239124902943e+00 6.1049698820468565e+00 -1 -1 -1
1274 425 4 -8.1999999999999995e-01 1.9250322168889893e+00 2.5673612990171275e+00 7.1446315325618661e+00 5 4 0
260 87 4 -8.1999999999999995e-01 1.9841948992756669e-01 8.9407080266213441e+00 7.3902730203456779e-01 3 4 0
3421 1141 3 4.0999999999999998e-01 2.2570093429123661e+00 5.7217521190542460e+00 6.0090382907889968e+00 -5 -4 1
399 133 3 4.0999999999999998e-01 7.7115823232014966e+00 2.7032439518003630e+00 4.6779627984393404e+00 -4 -1 2
6696 2232 3 4.0999999999999998e-01 3.6080644545355716e+00 4.4683544554156018e+00 9.6166664840158962e+00 -3 0 0
7006 2336 3 4.0999999999999998e-01 8.0528051823896316e+00 9.5717035818011933e+00 7.4035458902451783e+00 1 -1 0
7164 2388 3 4.0999999999999998e-01 6.8706573471097299e+00 7.6814983811306874e+00 9.7009455545628782e+00 -3 2 0
4861 1621 3 4.0999999999999998e-01 6.3555859217193698e+00 9.3617099137911763e-01 1.4111463633834058e+00 1 -1 2
817 273 3 4.0999999999999998e-01 3.5520048901920322e+00 9.0088450163176343e+00 1.6591398692130099e+00 -1 4 1
259 87 3 4.0999999999999998e-01 1.0449360191313810e+00 8.5158915778044726e+00 1.1870595742808812e+00 3 4 0
6734 2245 4 -8.1999999999999995e-01 3.4910906615172070e+00 1.0445913996735179e+01 5.1724955796333907e+00 2 6 2
7163 2388 4 -8.1999999999999995e-01 6.1487597383527834e+00 7.1332470909310635e+00 9.2560930940784871e+00 -3 2 0
3410 1137 4 -8.1999999999999995e-01 1.0150060485031894e+01 8.0261443617781474e+00 9.4306969600822566e+00 -2 2 -2
3260 1087 4 -8.1999999999999995e-01 5.6279958126412524e+00 8.5508278743744466e+00 4.4369662482645547e+00 2 2 3
812 271 4 -8.1999999999999995e-01 3.1845376972490551e+00 4.7246403476608769e+00 4.9317137570270866e+00 1 2 -2
5389 1797 3 4.0999999999999998e-01 2.2029944880129335e+00 3.0459762680548246e+00 3.0709351506242637e+00 2 -1 3
256 86 3 4.0999999999999998e-01 9.2480520109120761e+00 6.9194160112319212e+00 1.0270300029805810e+01 -2 2 -3
6156 2052 3 4.0999999999999998e-01 5.8780244258819412e+00 2.1420722410760478e+00 6.1419458256651245e+00 -5 -1 1
2298 766 3 4.0999999999999998e-01 2.7562156753292344e+00 1.7351541000362671e+00 1.1509759418447485e+00 5 -2 2
41 14 4 -8.1999999999999995e-01 4.3304398685706138e+00 6.5950467568432298e+00 3.1957596475436829e+00 0 -3 -3
5427 1809 3 4.0999999999999998e-01 5.5255229718289227e+00 5.7306150540816629e+00 7.4488147872756807e+00 -1 -1 0
42 14 3 4.0999999999999998e-01 4.8340046211129977e+00 6.1882520801715009e+00 2.4717444289663915e+00 0 -3 -3
811 271 3 4.0999999999999998e-01 2.5005563797841859e+00 3.9717189474531307e+00 4.8557938137142322e+00 1 2 -2
3411 1137 3 4.0999999999999998e-01 1.0174398923571582e+01 8.9932765236257222e+00 9.5476836004898065e+00 -2 2 -2
436 146 3 4.0999999999999998e-01 9.7240722372946689e+00 6.8585222100219125e+00 1.8190373833292515e+00 -1 0 3
819 273 3 4.0999999999999998e-01 4.9372258113058649e+00 8.6547124587841253e+00 6.7075930213768065e-01 -1 4 1
6012 2004 3 4.0999999999999998e-01 9.8159240571294557e+00 5.3552615170492546e+00 6.7633389127894565e+00 3 -1 2
5425 1809 3 4.0999999999999998e-01 4.5746988689480732e+00 4.4606680493651849e+00 8.0109021029575871e+00 -1 -1 0
5390 1797 4 -8.1999999999999995e-01 1.3854492808994952e+00 3.0054204527440440e+00 3.7044892669088849e+00 2 -1 3
1223 408 4 -8.1999999999999995e-01 1.6447135129759261e-01 7.5697019580990501e+00 8.7402184362936310e+00 -1 2 -4
1572 524 3 4.0999999999999998e-01 8.4518141133115119e+00 8.4514308219871754e+00 2.8547291184072749e+00 1 -2 4
7058 2353 4 -8.1999999999999995e-01 7.2254267338678515e+00 4.0963041229692507e+00 1.0165482582896921e+01 -2 1 1
7308 2436 3 4.0999999999999998e-01 9.3887075026383418e+00 2.7845293034818623e+00 6.6537141424713955e+00 0 -2 -4
3174 1058 3 4.0999999999999998e-01 6.8388698347130950e+00 1.0521976669246229e+01 2.9837038318795606e+00 -3 3 5
7306 2436 3 4.0999999999999998e-01 7.9309892653697434e+00 1.9561065066566770e+00 6.7677669767013198e+00 0 -2 -4
398 133 4 -8.1999999999999995e-01 8.2353357588076292e+00 2.6284370279343801e+00 3.8515740024746683e+00 -4 -1 2
1570 524 3 4.0999999999999998e-01 8.8218822434487727e+00 9.7614895492614480e+00 3.8803388413153050e+00 1 -2 4
2114 705 4 -8.1999999999999995e-01 8.8485102423073823e+00 1.9086382033491558e+00 9.7240829833949931e+00 1 -3 2
1754 585 4 -8.1999999999999995e-01 2.1051908861451722e+00 4.7743792953859137e+00 8.8770149115916475e+00 2 2 -1
2795 932 4 -8.1999999999999995e-01 9.6357990970127698e+00 1.0151382428562972e+01 5.3049544365880994e+00 -2 1 4
3259 1087 3 4.0999999999999998e-01 6.5391463815452893e+00 8.4883295059939936e+00 3.9757989546971353e+00 2 2 3
3172 1058 3 4.0999999999999998e-01 5.5975517971557656e+00 1.0470224106652500e+01 1.9783085465745651e+00 -3 3 5
5465 1822 4 -8.1999999999999995e-01 1.0271885695927425e+01 3.9536874906801983e-01 3.2053438903193401e+00 -1 -3 -4
5426 1809 4 -8.1999999999999995e-01 4.9485743755655101e+00 4.9046840219106373e+00 7.1719926964495730e+00 -1 -1 0
4521 1507 3 4.0999999999999998e-01 6.7643363048150249e+00 7.6671293522791126e+00 7.6345901679139310e+00 -5 0 3
6154 2052 3 4.0999999999999998e-01 6.0087235813549711e+00 3.8049552857054896e+00 6.4231733169606917e+00 -5 -1 1
3261 1087 3 4.0999999999999998e-01 5.0667909693842308e+00 7.8713080099795194e+00 3.9548419693633354e+00 2 2 3
7307 2436 4 -8.1999999999999995e-01 8.9217310545556181e+00 1.8595635637206440e+00 6.8460460746641241e+00 0 -2 -4
5950 1984 3 4.0999999999999998e-01 7.7809536667002002e+00 6.4185403174248830e+00 1.8629562039188852e+00 1 -5 2
2071 691 3 4.0999999999999998e-01 3.8205316268484553e+00 3.8285186882646705e+00 1.6308315475990460e+00 -2 4 8
4657 1553 3 4.0999999999999998e-01 1.7515399577466810e+00 8.0482992259422232e+00 3.2937556834571047e+00 1 2 2
2073 691 3 4.0999999999999998e-01 4.6102225098015470e+00 2.5323544007546879e+00 2.2047587300250817e+00 -2 4 8
4519 1507 3 4.0999999999999998e-01 6.5400524442742096e+00 8.1302534017117605e+00 5.9963741092777028e+00 -5 0 3
2331 777 3 4.0999999999999998e-01 9.2827368150854266e+00 7.0786869738438494e+00 4.7228326878732299e+00 -1 -1 -1
4863 1621 3 4.0999999999999998e-01 6.9376944341461080e+00 2.2733923878454556e+00 2.3033587341194575e+00 1 -1 2
5998 2000 3 4.0999999999999998e-01 6.1442644598414216e+00 3.0227195741612509e+00 5.6543787266281931e-01 4 1 0
1753 585 3 4.0999999999999998e-01 2.0958295404782645e+00 5.5259739969763588e+00 8.1030951127585134e+00 2 2 -1
1755 585 3 4.0999999999999998e-01 1.8010045117112337e+00 3.8442557113084868e+00 8.5076467635629136e+00 2 2 -1
4057 1353 3 4.0999999999999998e-01 2.2919652614178435e-01 7.1253882993396811e+00 4.3566793804858088e+00 -2 3 2
813 271 3 4.0999999999999998e-01 3.9066681144794808e+00 4.6021107134021824e+00 5.7058167711776910e+00 1 2 -2
3422 1141 4 -8.1999999999999995e-01 2.0314558664481073e+00 6.4338111683068249e+00 6.7290422875703433e+00 -5 -4 1
5951 1984 4 -8.1999999999999995e-01 6.8418174585728719e+00 6.1464643385869238e+00 1.5110123229014636e+00 1 -5 2
5391 1797 3 4.0999999999999998e-01 1.2292538299608444e+00 1.9782267995170757e+00 3.8632700095229224e+00 2 -1 3
3590 1197 4 -8.1999999999999995e-01 1.0465677213028400e+01 4.3363234839307792e+00 3.7421820213522814e+00 -1 1 2
438 146 3 4.0999999999999998e-01 9.6493185299973998e+00 5.6885758474283197e+00 3.1127551866600345e+00 -1 0 3
5952 1984 3 4.0999999999999998e-01 7.0119053139791792e+00 5.2338949684783431e+00 1.1325438795863949e+00 1 -5 2
397 133 3 4.0999999999999998e-01 8.9915833548657318e+00 3.3364351278225755e+00 3.7916898522324232e+00 -4 -1 2
1224 408 3 4.0999999999999998e-01 8.0536854504671995e-01 7.1549286121167821e+00 8.0280788561517440e+00 -1 2 -4
2115 705 3 4.0999999999999998e-01 8.8616877156229670e+00 1.7587593079866046e+00 8.7394209902215767e+00 1 -3 2
818 273 4 -8.1999999999999995e-01 4.3114269303824724e+00 9.3897954667860759e+00 1.1264993153508169e+00 -1 4 1
2516 839 4 -8.1999999999999995e-01 1.5728875028051561e+00 8.4091149034015142e+00 5.1333756026078055e+00 1 1 2
7057 2353 3 4.0999999999999998e-01 7.4819552587816167e+00 5.0635531609242630e+00 1.0143135382757658e+01 -2 1 1
3704 1235 4 -8.1999999999999995e-01 3.2191768617110057e+00 5.3715104799817315e-01 5.8522246999847560e+00 -1 1 2
6155 2052 4 -8.1999999999999995e-01 6.4403850595478263e+00 2.9699535026737283e+00 5.9829533888238320e+00 -5 -1 1
1571 524 4 -8.1999999999999995e-01 8.3034083746470859e+00 9.4492745329424288e+00 3.0073011217528114e+00 1 -2 4
2297 766 4 -8.1999999999999995e-01 2.3851574684641985e+00 1.3376546105300182e+00 1.9960417777825720e-01 5 -2 2
6011 2004 4 -8.1999999999999995e-01 9.8144454156508836e+00 4.3408453435816927e+00 6.8267759249556867e+00 3 -1 2
7007 2336 4 -8.1999999999999995e-01 8.1063724256962963e+00 1.0297179472523172e+01 8.1237860776314896e+00 1 -1 0
6695 2232 4 -8.1999999999999995e-01 4.5785871473812749e+00 4.2076224252380854e+00 9.7209972465065952e+00 -3 0 0
6694 2232 3 4.0999999999999998e-01 4.5308789446010937e+00 3.4139174836292248e+00 1.0407556309827557e+01 -3 0 0
6735 2245 3 4.0999999999999998e-01 4.2918941869293805e+00 9.7984249341554417e+00 5.1813079842338254e+00 2 6 2
5613 1871 3 4.0999999999999998e-01 9.1606925019471319e+00 6.2457600576770633e-01 1.0503407442032493e+01 0 1 7
3363 1121 3 4.0999999999999998e-01 1.0495344757068271e+01 1.1964479717265075e+00 6.6755475403886226e+00 -1 -1 -1
6813 2271 3 4.0999999999999998e-01 6.1470309442427533e+00 7.0808100068762583e+00 4.5833379733001633e-01 2 1 7
5166 1722 3 4.0999999999999998e-01 8.1566832497043174e-01 4.3406354256250905e+00 1.0418947401655393e+01 2 3 1
3951 1317 3 4.0999999999999998e-01 5.0687619804390334e+00 5.5172807146630962e+00 1.5855399743185936e+01 0 3 3
257 86 4 -8.1999999999999995e-01 8.5317309654416000e+00 6.5246923995591155e+00 1.0905198599124020e+01 -2 2 -3
352 118 3 4.0999999999999998e-01 1.0491692371628119e+00 4.1447220138597114e+00 1.8725954264280446e+01 2 2 -4
2693 898 4 -8.1999999999999995e-01 9.2935097351424236e+00 1.5414614298463321e+00 1.4088539095901297e+01 0 1 -1
5699 1900 4 -8.1999999999999995e-01 5.2924436969804436e+00 1.0307106698285512e+01 1.8841146245206911e+01 2 1 0
6684 2228 3 4.0999999999999998e-01 4.0757487842695168e+00 6.3443172007141460e+00 2.0301102493623659e+01 3 -2 -2
6298 2100 3 4.0999999999999998e-01 1.9615453660413553e+00 6.3248135234676202e+00 1.8130721494647190e+01 3 3 3
2860 954 3 4.0999999999999998e-01 7.1762002958502142e+00 7.2040106584304278e+00 1.4562304000178985e+01 1 -1 3
3892 1298 3 4.0999999999999998e-01 5.5053017049843955e+00 6.8565332676994952e+00 1.9029964086334580e+01 1 2 2
258 86 3 4.0999999999999998e-01 8.0886088370297937e+00 7.3539834829134421e+00 1.1303067446783395e+01 -2 2 -3
3894 1298 3 4.0999999999999998e-01 4.1284655412563280e+00 7.5544489053384192e+00 1.8300905823410389e+01 1 2 2
2694 898 3 4.0999999999999998e-01 1.0087892458336070e+01 2.1679741122265010e+00 1.4041104535664566e+01 0 1 -1
2861 954 4 -8.1999999999999995e-01 7.1095514636008845e+00 6.5409373731395775e+00 1.3754019437756822e+01 1 -1 3
4316 1439 4 -8.1999999999999995e-01 2.9830768049889445e+00 7.4018616823196020e+00 1.7039324072781490e+01 5 -1 -1
354 118 3 4.0999999999999998e-01 1.3058540369789657e+00 2.6294278370846396e+00 1.8471367974033683e+01 2 2 -4
998 333 4 -8.1999999999999995e-01 7.4275487226634755e+00 9.0021395747689681e+00 1.1728746297692018e+01 1 3 -3
4463 1488 4 -8.1999999999999995e-01 5.6916605185723181e+00 1.4002147192255490e+00 1.5346397907708170e+01 6 -2 3
5542 1848 3 4.0999999999999998e-01 9.0496006836541714e+00 4.3566912231495127e+00 1.1519932480652603e+01 -1 2 -2
4351 1451 3 4.0999999999999998e-01 9.9300383156920411e+00 3.8777599526200679e-01 1.6947918933735572e+01 -1 1 1
2862 954 3 4.0999999999999998e-01 8.0464883924016739e+00 6.5437000885826375e+00 1.3350852947918145e+01 1 -1 3
982 328 3 4.0999999999999998e-01 4.9904325970627799e+00 5.9408754313673064e+00 1.1573747977069754e+01 -1 2 5
1144 382 3 4.0999999999999998e-01 9.7509483802683476e+00 2.4582682556723512e-01 1.5015767700477085e+01 4 5 -6
3118 1040 3 4.0999999999999998e-01 6.2132560285138849e+00 2.1403612121405562e+00 1.2765373909215841e+01 1 -1 0
3119 1040 4 -8.1999999999999995e-01 6.9961179637011419e+00 2.7621204898983152e+00 1.2779615984559573e+01 1 -1 0
4462 1488 3 4.0999999999999998e-01 5.9362835880580258e+00 1.2328775731375181e+00 1.6328389564689576e+01 6 -2 3
3950 1317 4 -8.1999999999999995e-01 5.4190324863199839e+00 6.3804262881850802e+00 1.6386719629507212e+01 0 3 3
488 163 4 -8.1999999999999995e-01 4.7376873051851405e+00 4.0688396485238263e+00 1.4820020775559268e+01 2 -3 -3
5084 1695 4 -8.1999999999999995e-01 6.4332990354029187e+00 4.6333636332285860e-01 1.7735986371224850e+01 -2 0 0
7128 2376 3 4.0999999999999998e-01 8.9271567863706309e+00 8.2460338314259811e+00 2.0477623284620581e+01 0 -1 2
5544 1848 3 4.0999999999999998e-01 8.7791376784843926e+00 3.2315181066080232e+00 1.2588551640371399e+01 -1 2 -2
1253 418 4 -8.1999999999999995e-01 3.7695424473907977e+00 8.3834589104394777e+00 1.3362648302865043e+01 -2 2 -1
1612 538 3 4.0999999999999998e-01 9.7583501169536060e+00 7.6864157865239369e+00 1.8508171529929644e+01 4 1 1
6300 2100 3 4.0999999999999998e-01 5.4516841454565157e-01 6.1217002415541186e+00 1.8814705028216476e+01 3 3 3
923 308 4 -8.1999999999999995e-01 7.4981133358495686e+00 2.9794171707856387e+00 1.8973898150578268e+01 -1 4 -2
5070 1690 3 4.0999999999999998e-01 1.1923087502088698e+00 1.5153461368506875e+00 1.2109570685826961e+01 0 -1 4
1302 434 3 4.0999999999999998e-01 4.1747181523429502e+00 8.5391663431654674e+00 1.1115483919378507e+01 -1 1 1
6759 2253 3 4.0999999999999998e-01 5.2156663627156066e+00 9.3930918175132874e+00 1.3818694902806969e+01 -1 2 -1
984 328 3 4.0999999999999998e-01 5.8238082380556602e+00 6.1073473996123875e+00 1.2965072816917353e+01 -1 2 5
487 163 3 4.0999999999999998e-01 4.8200791013971536e+00 4.6764869089578118e+00 1.3968056824923051e+01 2 -3 -3
3893 1298 4 -8.1999999999999995e-01 4.7107871117489273e+00 7.5180378216222206e+00 1.9182569911321451e+01 1 2 2
922 308 3 4.0999999999999998e-01 7.1088649224696487e+00 2.0721454678170166e+00 1.8599851769056151e+01 -1 4 -2
4159 1387 3 4.0999999999999998e-01 2.1366667317189441e+00 2.4345330606769764e+00 1.6557220019198954e+01 3 4 -1
6299 2100 4 -8.1999999999999995e-01 1.5119631752997067e+00 5.7724940702649947e+00 1.8899016831826380e+01 3 3 3
23 8 4 -8.1999999999999995e-01 8.0180358417712387e+00 8.7672809410872770e+00 1.5385788290928755e+01 3 3 1
924 308 3 4.0999999999999998e-01 7.2657371228891803e+00 3.0806935940579976e+00 1.9982869015939389e+01 -1 4 -2
5234 1745 4 -8.1999999999999995e-01 7.6536377173786603e+00 3.6622514133846904e+00 1.5900214695982699e+01 2 1 1
4317 1439 3 4.0999999999999998e-01 3.8249910645550904e+00 7.0645917940352572e+00 1.6566490825163953e+01 5 -1 -1
2216 739 4 -8.1999999999999995e-01 6.6709728770546004e+00 5.8223364372273849e+00 1.8668319494259041e+01 4 2 6
2680 894 3 4.0999999999999998e-01 9.6086577245844378e+00 7.6192571943546517e+00 1.5460547116681806e+01 3 0 -2
2217 739 3 4.0999999999999998e-01 6.9064468781413391e+00 4.8733306253247193e+00 1.8962841444152872e+01 4 2 6
117 39 3 4.0999999999999998e-01 9.0445539546616904e-01 7.5305355222494130e+00 1.4761884945504267e+01 4 1 -1
353 118 4 -8.1999999999999995e-01 6.0317500257347811e-01 3.2508313112705971e+00 1.8873488172103961e+01 2 2 -4
7095 2365 3 4.0999999999999998e-01 2.9060198374365229e+00 9.7429605870586933e-01 1.8501905385541864e+01 3 1 -2
5700 1900 3 4.0999999999999998e-01 5.0574631694410677e+00 9.4489191087536391e+00 1.9273862892270881e+01 2 1 0
570 190 3 4.0999999999999998e-01 4.4270964807176130e+00 8.3256276483135283e-01 1.0946712128685432e+01 0 -4 -3
2646 882 3 4.0999999999999998e-01 1.0143347951655008e+00 4.6777492104972760e+00 1.3675797832953823e+01 0 1 -1
6140 2047 4 -8.1999999999999995e-01 2.3070615784674637e+00 5.4823908235253285e+00 1.2859937691123655e+01 3 2 2
3949 1317 3 4.0999999999999998e-01 6.1355449184465316e+00 6.0827281701932181e+00 1.7100842012965369e+01 0 3 3
2644 882 3 4.0999999999999998e-01 8.4064828435264449e-01 3.6028421449651442e+00 1.4898839792396402e+01 0 1 -1
1098 366 3 4.0999999999999998e-01 3.0472025810428915e+00 8.4311313924111464e-01 1.3807130169894188e+01 -5 -6 1
2645 882 4 -8.1999999999999995e-01 3.0838781629422313e-01 4.2351170737309305e+00 1.4314386370069153e+01 0 1 -1
5235 1745 3 4.0999999999999998e-01 7.2497217389938617e+00 3.7481306531349285e+00 1.4997826224504641e+01 2 1 1
569 190 4 -8.1999999999999995e-01 4.5529090289500003e+00 1.7262258099008674e+00 1.1443040162135881e+01 0 -4 -3
7094 2365 4 -8.1999999999999995e-01 2.3015961863358867e+00 1.3218221285777327e+00 1.7796959180278751e+01 3 1 -2
4315 1439 3 4.0999999999999998e-01 2.5796951543580300e+00 8.0875772973510092e+00 1.6463056432548509e+01 5 -1 -1
1614 538 3 4.0999999999999998e-01 8.5279122859219640e+00 8.7888091137644739e+00 1.8402354230912223e+01 4 1 1
1252 418 3 4.0999999999999998e-01 4.1258655585633930e+00 7.4515357224332677e+00 1.3177464209058973e+01 -2 2 -1
2692 898 3 4.0999999999999998e-01 8.4021244613562232e+00 1.9595001210770751e+00 1.4311934407467954e+01 0 1 -1
7093 2365 3 4.0999999999999998e-01 1.9377304507390307e+00 5.1575707316525254e-01 1.7254180963446565e+01 3 1 -2
22 8 3 4.0999999999999998e-01 8.0684435093355429e+00 9.3324377045720457e+00 1.6240024101506979e+01 3 3 1
5611 1871 3 4.0999999999999998e-01 9.2626889287433904e+00 6.1941353268448163e-01 1.2192105843074488e+01 0 1 7
525 175 3 4.0999999999999998e-01 1.1492978832191043e+00 1.0125454846247180e+01 1.1589810305739350e+01 -1 -6 3
489 163 3 4.0999999999999998e-01 5.3405504713946907e+00 3.2667034108575517e+00 1.4776872285020874e+01 2 -3 -3
3219 1073 3 4.0999999999999998e-01 1.0232835986990601e+01 5.5658230887265976e+00 1.6697812247448656e+01 -3 1 3
983 328 4 -8.1999999999999995e-01 4.8981576369312840e+00 5.7697669358228181e+00 1.2598540002117286e+01 -1 2 5
5710 1904 3 4.0999999999999998e-01 6.9185785734311311e+00 1.0172748283820182e+01 1.8315433794470561e+01 0 -2 -4
6139 2047 3 4.0999999999999998e-01 1.8765088114375548e+00 6.1093209938670929e+00 1.2163324686964893e+01 3 2 2
3120 1040 3 4.0999999999999998e-01 6.9206079137182508e+00 3.3082413934653760e+00 1.1914343837689801e+01 1 -1 0
1613 538 4 -8.1999999999999995e-01 8.8378225036056932e+00 7.9748326198802362e+00 1.8856935601548926e+01 4 1 1
4161 1387 3 4.0999999999999998e-01 3.2768838722196723e+00 3.3313970495641638e+00 1.5663116103259854e+01 3 4 -1
2234 745 4 -8.1999999999999995e-01 8.5970298143597201e+00 4.5868467395949303e-01 2.0272620099963039e+01 -1 4 2
5233 1745 3 4.0999999999999998e-01 6.9703839437132178e+00 3.4902822404709055e+00 1.6644408541751826e+01 2 1 1
1097 366 4 -8.1999999999999995e-01 2.5875141555088050e+00 1.5983371382043523e+00 1.3239108725077349e+01 -5 -6 1
4160 1387 4 -8.1999999999999995e-01 2.2838754353734618e+00 3.0364252920146901e+00 1.5708281230021601e+01 3 4 -1
1096 366 3 4.0999999999999998e-01 2.3908282454083531e+00 2.3849677627627868e+00 1.3879059060821570e+01 -5 -6 1
999 333 3 4.0999999999999998e-01 6.8057635003518193e+00 9.1227699296730851e+00 1.2534509008033641e+01 1 3 -3
997 333 3 4.0999999999999998e-01 7.8450114990311715e+00 9.9449711425275211e+00 1.1620256183008580e+01 1 3 -3
116 39 4 -8.1999999999999995e-01 1.1963248490740521e+00 8.5011598145823903e+00 1.4763652207356195e+01 4 1 -1
6141 2047 3 4.0999999999999998e-01 3.2924644891190207e+00 5.5996169863752208e+00 1.2663053473889134e+01 3 2 2
24 8 3 4.0999999999999998e-01 7.5723856850055018e+00 9.4149508685686047e+00 1.4682827559047057e+01 3 3 1
3134 1045 4 -8.1999999999999995e-01 9.8859609578019025e+00 6.3705564243464137e+00 1.3474313891215653e+01 1 4 -3
1254 418 3 4.0999999999999998e-01 2.7365138768763777e+00 8.3440386479160331e+00 1.3625636108749802e+01 -2 2 -1
3217 1073 3 4.0999999999999998e-01 9.1027782388497265e+00 4.3083839104740429e+00 1.6693748641717988e+01 -3 1 3
2508 836 3 4.0999999999999998e-01 1.8698990836192209e-01 7.5114196361075702e+00 1.1754118979214610e+01 1 2 4
2215 739 3 4.0999999999999998e-01 7.6277853643130538e+00 6.2876116496898398e+00 1.8661090458844974e+01 4 2 6
4464 1488 3 4.0999999999999998e-01 5.1338357081227048e+00 5.6906795329960869e-01 1.5063194289450344e+01 6 -2 3
4352 1451 4 -8.1999999999999995e-01 9.8676917164244280e+00 7.5028816552957345e-01 1.7926808570605782e+01 -1 1 1
6758 2253 4 -8.1999999999999995e-01 6.0715313426308040e+00 1.0007917318724830e+01 1.3956655430572589e+01 -1 2 -1
3135 1045 3 4.0999999999999998e-01 9.8407096545420742e+00 6.1155269386484505e+00 1.4451178888672247e+01 1 4 -3
5069 1690 4 -8.1999999999999995e-01 4.2033545847626430e-01 1.3967502409947365e+00 1.1445044552352625e+01 0 -1 4
6682 2228 3 4.0999999999999998e-01 2.6718806486478233e+00 5.7419795695557605e+00 2.0449838486663282e+01 3 -2 -2
3218 1073 4 -8.1999999999999995e-01 1.0047741075042683e+01 4.5712555496592273e+00 1.6888767229263632e+01 -3 1 3
5068 1690 3 4.0999999999999998e-01 6.2978991260298178e-01 7.5446695178871148e-01 1.0653072962085790e+01 0 -1 4
1399 467 3 4.0999999999999998e-01 1.8714921264006497e+00 9.9974809102767921e+00 1.5418194368696213e+01 -2 2 1
568 190 3 4.0999999999999998e-01 3.8665367960104122e+00 1.8217049245889247e+00 1.2187904704202131e+01 0 -4 -3
3133 1045 3 4.0999999999999998e-01 9.8312073855880993e+00 5.4073650220717688e+00 1.3039995864336470e+01 1 4 -3
2233 745 3 4.0999999999999998e-01 8.9475511884589949e+00 7.9473987486114595e-01 1.9350810907250779e+01 -1 4 2
5711 1904 4 -8.1999999999999995e-01 7.7936955490992688e+00 1.0233828099246590e+01 1.7777791839274620e+01 0 -2 -4
2507 836 4 -8.1999999999999995e-01 1.0844899736155189e+00 7.4538205724868334e+00 1.1252589162643154e+01 1 2 4
5085 1695 3 4.0999999999999998e-01 5.8634112919291272e+00 2.5508677602900320e-01 1.8583803639688309e+01 -2 0 0
5543 1848 4 -8.1999999999999995e-01 9.4258881186325816e+00 4.0177910720515095e+00 1.2380683031684057e+01 -1 2 -2
115 39 3 4.0999999999999998e-01 3.5085955859161394e-01 9.0731408444423813e+00 1.4937217811271665e+01 4 1 -1
4353 1451 3 4.0999999999999998e-01 1.0575353939882847e+01 1.4989810372421186e+00 1.8095246736725151e+01 -1 1 1
2681 894 4 -8.1999999999999995e-01 1.0332192453150098e+01 7.2224746841469889e+00 1.6069299967428719e+01 3 0 -2
1140 380 3 4.0999999999999998e-01 3.6349889504987183e+00 2.3136820527742437e+00 2.0663258191026586e+01 -2 0 2
6683 2228 4 -8.1999999999999995e-01 3.6063788956131821e+00 5.7310342576938202e+00 2.0910145079620776e+01 3 -2 -2
6757 2253 3 4.0999999999999998e-01 5.9531792769085019e+00 1.0474414960835668e+01 1.4863635149560327e+01 -1 2 -1
1300 434 3 4.0999999999999998e-01 2.8987011294103802e+00 7.4289610513143742e+00 1.0739331041497193e+01 -1 1 1
3722 1241 4 -8.1999999999999995e-01 5.3417254163103536e+00 7.5569431370191187e-01 2.2504224760695255e+01 5 0 0
4765 1589 3 4.0999999999999998e-01 4.6121405306332566e+00 3.0875060214547156e+00 2.5353157455836520e+01 -3 0 -3
3863 1288 4 -8.1999999999999995e-01 5.5670179399019002e+00 8.4500530335600033e+00 2.8763035864831988e+01 0 -6 -4
2490 830 3 4.0999999999999998e-01 7.2288244816359333e+00 4.5420256472580087e+00 3.0163610872770501e+01 -4 -3 3
5818 1940 3 4.0999999999999998e-01 6.5702938376165481e+00 4.0528750371633754e-01 2.9613618439610288e+01 3 1 1
6251 2084 4 -8.1999999999999995e-01 9.3542557663470092e+00 6.4722047903906930e+00 2.9643383596691329e+01 -2 2 1
2984 995 4 -8.1999999999999995e-01 6.1728636702634390e+00 3.2281905755722695e+00 2.1554425604591746e+01 1 2 1
4740 1580 3 4.0999999999999998e-01 4.5338902105946728e+00 5.0968580104278454e+00 2.9668241624839421e+01 -1 3 2
3721 1241 3 4.0999999999999998e-01 5.9904190704295175e+00 1.5159321528242442e+00 2.2219885064926704e+01 5 0 0
1639 547 3 4.0999999999999998e-01 1.9391509365980601e+00 1.6129365792636954e+00 2.1420405963789779e+01 3 1 0
6158 2053 4 -8.1999999999999995e-01 7.0964343106112056e+00 5.6276313399154887e+00 2.5037058896615719e+01 3 0 2
453 151 3 4.0999999999999998e-01 9.8615419331136316e+00 6.0363567402012350e+00 2.3245762050312653e+01 2 2 1
314 105 4 -8.1999999999999995e-01 9.6614096173087152e+00 9.4110026879991189e+00 2.9204181984129089e+01 1 0 -2
2488 830 3 4.0999999999999998e-01 8.1494895228188700e+00 3.9232752629765169e+00 2.9022564531955666e+01 -4 -3 3
4179 1393 3 4.0999999999999998e-01 4.0541123682488900e+00 4.8665376515644851e+00 2.4056817981712427e+01 -2 -5 1
3657 1219 3 4.0999999999999998e-01 9.3447163333759722e+00 2.8200018679349439e+00 2.2164718079486477e+01 -3 2 0
2983 995 3 4.0999999999999998e-01 7.1099809581846385e+00 2.9678624393704154e+00 2.1982633046171308e+01 1 2 1
2361 787 3 4.0999999999999998e-01 5.3440348365467880e+00 7.9906759952102844e+00 2.4426161579054881e+01 -4 -1 0
4739 1580 4 -8.1999999999999995e-01 4.5924074564350859e+00 4.5436179158676833e+00 2.8811569646142310e+01 -1 3 2
4792 1598 3 4.0999999999999998e-01 6.3194484828848205e+00 1.7695684619076779e+00 2.5915993938316351e+01 2 -1 1
366 122 3 4.0999999999999998e-01 8.5998031276739173e+00 9.2315894937041101e+00 2.6817039445487154e+01 -1 0 1
313 105 3 4.0999999999999998e-01 8.9035082170770643e+00 1.0008022330592166e+01 2.9546175002035564e+01 1 0 -2
3395 1132 4 -8.1999999999999995e-01 4.1167248327662689e+00 4.7051756925531238e+00 2.6084281524157134e+01 1 4 -4
1393 465 3 4.0999999999999998e-01 1.5701201656055273e+00 3.7027766931986226e+00 2.2609694903084815e+01 1 3 -2
4766 1589 4 -8.1999999999999995e-01 4.8240089342951409e+00 2.1326469003080351e+00 2.4949972035514044e+01 -3 0 -3
4647 1549 3 4.0999999999999998e-01 2.7234169247033093e+00 7.8635039459823570e+00 2.7558925228148304e+01 1 -1 5
4265 1422 4 -8.1999999999999995e-01 9.3703032042277083e+00 8.8136135348636877e+00 2.4163094693597927e+01 -1 -1 -1
2360 787 4 -8.1999999999999995e-01 4.6232446302318371e+00 8.4629356261047750e+00 2.4988453543130564e+01 -4 -1 0
315 105 3 4.0999999999999998e-01 9.5473900744206368e+00 9.0797059910239266e+00 2.8250031748770475e+01 1 0 -2
7292 2431 4 -8.1999999999999995e-01 7.2324433788715901e+00 6.5476907591874696e+00 3.1307036514179380e+01 -2 2 -1
2612 871 4 -8.1999999999999995e-01 7.0631927578072675e+00 6.6352430766028103e+00 2.7738188841856829e+01 2 5 2
6705 2235 3 4.0999999999999998e-01 9.0465988480322928e+00 1.2565453948414398e+00 2.7263137947280143e+01 -4 -2 -2
3864 1288 3 4.0999999999999998e-01 4.5474669169750319e+00 8.2632079505399894e+00 2.8831887707629477e+01 0 -6 -4
6703 2235 3 4.0999999999999998e-01 8.2348227917684280e+00 6.1876328660476876e-01 2.8564582698439011e+01 -4 -2 -2
3656 1219 4 -8.1999999999999995e-01 8.5479211043038479e+00 2.1803834565417111e+00 2.2322047778965313e+01 -3 2 0