LAMMPS data file via write_data, version 5 Jun 2019, timestep = 1500000

7349 atoms
5 atom types
4899 bonds
2 bond types
2451 angles
2 angle types
1 impropers
1 improper types

1.5519297081455363e-01 4.1845807029189409e+01 xlo xhi
1.5469297081455124e-01 4.1845307029189406e+01 ylo yhi
1.5469297081455124e-01 4.1845307029189406e+01 zlo zhi

#Masses
#
#1 12.01
#2 40.08
#3 1.01
#4 16
#5 16
#
#Bond Coeffs # harmonic
#
#1 20.4246 1.3042
#2 22.965 1.012

Atoms # full

7185 2395 3 4.0999999999999998e-01 9.2788210392784309e-01 1.4864464296235440e+00 2.1235479237400283e+00 1 1 1
1662 554 3 4.0999999999999998e-01 6.1486325588994069e+00 5.9937511969153618e+00 3.0552400512869546e+00 0 0 1
2244 748 3 4.0999999999999998e-01 2.8511164138742857e+00 2.6552929436088410e+00 4.0929995700224859e+00 0 2 1
3607 1203 3 4.0999999999999998e-01 8.3897334385764992e+00 9.1701787639109238e+00 6.3985966168535322e+00 0 1 0
687 229 3 4.0999999999999998e-01 7.2018579720857376e+00 3.2923948800154603e+00 4.8349519712278832e+00 0 0 0
1513 505 3 4.0999999999999998e-01 3.5446076624933891e+00 9.1557217294825204e+00 9.8504609285677400e+00 0 0 2
460 154 3 4.0999999999999998e-01 6.7697586237044050e+00 4.9083975570707574e+00 4.1431783256896881e-01 1 1 1
1954 652 3 4.0999999999999998e-01 1.0007894764192651e+01 5.0796342978750957e+00 7.8525646922635106e+00 0 0 1
6094 2032 3 4.0999999999999998e-01 4.5700058387039846e+00 3.0499057477561442e-01 4.1938375786729685e+00 1 -1 1
4287 1429 3 4.0999999999999998e-01 1.5207541469977794e+00 5.4705110408504032e+00 3.5164877001609836e+00 0 0 0
5221 1741 3 4.0999999999999998e-01 8.0982862518091885e+00 1.0375518171314679e+01 9.0863097540199056e-01 1 2 1
1264 422 3 4.0999999999999998e-01 1.2007526461854474e+00 6.8694460334197789e+00 8.3480911813334515e+00 1 0 0
2593 865 3 4.0999999999999998e-01 8.4909347968858082e+00 5.8466479055404381e+00 8.8566433812026570e+00 0 1 1
3811 1271 3 4.0999999999999998e-01 7.5845014226061647e+00 2.4979308090581815e+00 8.2392258061063894e-01 0 0 2
2325 775 3 4.0999999999999998e-01 2.7182397423031052e-01 1.0124873490931460e+01 4.1070401329911927e+00 0 0 2
2323 775 3 4.0999999999999998e-01 1.5244955769943858e+00 9.7519290328626553e+00 5.0816233247638216e+00 0 0 2
1334 445 4 -8.1999999999999995e-01 4.5756348540081131e+00 7.8180195526363043e+00 4.6700419058684046e+00 0 1 0
833 278 4 -8.1999999999999995e-01 2.1748236529088123e+00 9.2221525485485145e+00 1.1865250472880755e+00 1 -1 1
3455 1152 4 -8.1999999999999995e-01 1.0031986484194379e+01 8.6663436483501179e+00 9.7786135658170075e+00 1 0 2
832 278 3 4.0999999999999998e-01 1.7734150309028895e+00 1.0051587881982867e+01 7.1271589655115997e-01 1 -1 1
7314 2438 3 4.0999999999999998e-01 9.0386224840243801e-01 3.1600087149722160e+00 8.2063200946619954e+00 1 0 0
1141 381 3 4.0999999999999998e-01 6.4927911481660221e+00 7.9752265295660729e-01 1.0173397383319729e+01 2 1 0
1335 445 3 4.0999999999999998e-01 4.9787286585915806e+00 8.2298424827520282e+00 5.5325958613854844e+00 0 1 0
5136 1712 3 4.0999999999999998e-01 5.9406347802528181e+00 7.1536557573586235e+00 1.1579143781040038e+00 0 1 0
359 120 4 -8.1999999999999995e-01 4.0711843421111737e+00 2.5341789502874699e+00 8.9392692877707063e+00 0 1 1
5080 1694 3 4.0999999999999998e-01 3.1489627732889156e+00 5.5431130950436396e+00 7.2845770947967967e+00 0 0 1
2784 928 3 4.0999999999999998e-01 1.2914016263834600e+00 7.6110863723184776e+00 4.7263455968897814e+00 -1 0 1
1261 421 3 4.0999999999999998e-01 3.8046400718514142e+00 8.7449915693316100e+00 1.3604500455801709e+00 0 -2 0
4594 1532 3 4.0999999999999998e-01 9.4518177804561176e+00 5.6353323327421911e+00 1.5762760144223102e+00 0 0 0
6449 2150 4 -8.1999999999999995e-01 3.5599171464960904e+00 2.5381919259225039e+00 5.9530578933632117e-01 1 0 1
1677 559 3 4.0999999999999998e-01 9.3480251686970242e+00 8.0073231746929103e+00 2.2365100446775976e+00 1 1 0
4285 1429 3 4.0999999999999998e-01 1.0491265154698446e+00 3.9997570365918671e+00 2.9255301952154440e+00 0 0 0
6718 2240 3 4.0999999999999998e-01 4.3959423993080984e+00 3.9043886463188291e+00 6.3161474105837945e+00 1 -1 2
5134 1712 3 4.0999999999999998e-01 5.0911805837181614e+00 5.7198920178635078e+00 1.3921563315546444e+00 0 1 0
2594 865 4 -8.1999999999999995e-01 8.9109405194973075e+00 6.5415184491165492e+00 8.1607879338078160e+00 0 1 1
793 265 3 4.0999999999999998e-01 5.6946719448092100e+00 2.4268661191900609e+00 3.0679201212385303e+00 0 1 0
5565 1855 3 4.0999999999999998e-01 8.9310813694017988e-01 4.9416539933976500e+00 8.3369842239018190e+00 0 0 1
1660 554 3 4.0999999999999998e-01 7.4027016295481722e+00 6.4312507896309477e+00 3.9120685988592672e+00 0 0 1
5135 1712 4 -8.1999999999999995e-01 6.0350461785356346e+00 6.1748313296250021e+00 1.3920635524340301e+00 0 1 0
6031 2011 3 4.0999999999999998e-01 1.7863871238284140e-01 7.8721528094613502e+00 2.3194845706162465e-01 1 0 1
2782 928 3 4.0999999999999998e-01 2.9089209611167659e+00 7.3871937142085917e+00 4.3353684060596231e+00 -1 0 1
1676 559 4 -8.1999999999999995e-01 8.8944897976567301e+00 7.2810686331656571e+00 1.7133027181339926e+00 1 1 0
2685 895 3 4.0999999999999998e-01 5.5306273138726674e+00 1.0494794446457941e+01 9.5123399087869114e+00 0 1 1
7184 2395 4 -8.1999999999999995e-01 7.8491875597219085e-01 2.1060246568227359e+00 2.9261446873938990e+00 1 1 1
2783 928 4 -8.1999999999999995e-01 2.0734668552349675e+00 6.8656204352545123e+00 4.6433524851104560e+00 -1 0 1
7313 2438 4 -8.1999999999999995e-01 1.5783998342884524e+00 2.4201769551448629e+00 7.8883494913757861e+00 1 0 0
918 306 3 4.0999999999999998e-01 9.7222578670200956e+00 9.9852690233071204e+00 4.2573818605687208e+00 0 -1 -2
1514 505 4 -8.1999999999999995e-01 2.7909380964493367e+00 8.4584476613463657e+00 1.0171981746053227e+01 0 0 2
2242 748 3 4.0999999999999998e-01 4.0422531995799336e+00 3.6467681050216747e+00 4.2670589260412672e+00 0 2 1
4595 1532 4 -8.1999999999999995e-01 9.6317575705939511e+00 4.5880876659138687e+00 1.5415016048350381e+00 0 0 0
1147 383 3 4.0999999999999998e-01 4.0282411954269755e+00 4.0066934588536895e+00 9.9145671691952924e+00 -1 0 1
1661 554 4 -8.1999999999999995e-01 6.4406689942966393e+00 6.0864168430502446e+00 4.0416868682266420e+00 0 0 1
5490 1830 3 4.0999999999999998e-01 1.0407711478622188e+01 2.2352052776727631e+00 4.2570475835470667e+00 0 0 1
3599 1200 4 -8.1999999999999995e-01 8.3674919694007652e+00 3.1956373140873073e-01 7.0142279295283654e+00 1 1 -1
834 278 3 4.0999999999999998e-01 1.3854514797826876e+00 8.6494587714818092e+00 1.5836496678872840e+00 1 -1 1
685 229 3 4.0999999999999998e-01 6.5467566100662991e+00 4.5022233067299346e+00 4.1253235998171762e+00 0 0 0
907 303 3 4.0999999999999998e-01 6.5607119537684389e+00 7.0891602949077486e+00 7.1330364618077367e+00 1 2 1
6382 2128 3 4.0999999999999998e-01 6.8194186695838086e+00 2.4092793246472075e-01 8.2627673386000016e+00 2 -1 0
686 229 4 -8.1999999999999995e-01 6.4707350254799127e+00 3.5114688681657160e+00 4.1878449968105489e+00 0 0 0
2324 775 4 -8.1999999999999995e-01 6.6207098545083942e-01 9.3678957019212739e+00 4.7153870548177759e+00 0 0 2
5081 1694 4 -8.1999999999999995e-01 2.1817877152320300e+00 5.7671497221873027e+00 7.2371405363700765e+00 0 0 1
5486 1829 4 -8.1999999999999995e-01 7.9528499093287337e+00 5.0136844025410241e+00 1.0242877450871607e+01 0 -1 0
4561 1521 3 4.0999999999999998e-01 4.3445364203477963e+00 7.6465952327343345e+00 1.0534908139713655e+01 0 -1 0
794 265 4 -8.1999999999999995e-01 5.0908578088574030e+00 1.7094187181591687e+00 2.6936420812004127e+00 0 1 0
1333 445 3 4.0999999999999998e-01 5.1581100598449616e+00 7.0151988730954153e+00 4.5278998802703878e+00 0 1 0
2149 717 3 4.0999999999999998e-01 6.5129375006774977e+00 9.1716557348300896e+00 6.5311650355873594e+00 0 0 1
5488 1830 3 4.0999999999999998e-01 9.5136060669643996e+00 1.7875864215876731e+00 2.8629746501287734e+00 0 0 1
6096 2032 3 4.0999999999999998e-01 3.8192628196789835e+00 1.0345686986284655e+00 5.5065050464599929e+00 1 -1 1
3454 1152 3 4.0999999999999998e-01 9.7773055292507998e+00 9.4931797065946260e+00 9.2220110592952533e+00 1 0 2
358 120 3 4.0999999999999998e-01 3.1227072094276096e+00 2.3979526853160444e+00 8.5060972140983218e+00 0 1 1
4066 1356 3 4.0999999999999998e-01 4.6920792719586775e+00 1.0555645704442925e+01 1.8377439214294551e+00 1 1 2
908 303 4 -8.1999999999999995e-01 5.7815551498741486e+00 6.7761576457366655e+00 7.7014709643125778e+00 1 2 1
1675 559 3 4.0999999999999998e-01 8.5552727969099749e+00 7.6422554494988777e+00 7.7504778819183895e-01 1 1 0
5489 1830 4 -8.1999999999999995e-01 1.0038949498503133e+01 1.4216168150426645e+00 3.7047077998055959e+00 0 0 1
4713 1571 3 4.0999999999999998e-01 3.8245020147503657e+00 4.0556232513434720e+00 7.3199736606733623e-01 0 1 1
1515 505 3 4.0999999999999998e-01 2.0796530073778503e+00 8.2595050535714734e+00 9.4599524366571774e+00 0 0 2
2595 865 3 4.0999999999999998e-01 9.3505592243511781e+00 7.2790291956399091e+00 8.6770229685117375e+00 0 1 1
3609 1203 3 4.0999999999999998e-01 8.5569133980828518e+00 7.5188696112920574e+00 6.8548220919373275e+00 0 1 0
6720 2240 3 4.0999999999999998e-01 4.6866965368999827e+00 3.6783042356733349e+00 8.0020393663202274e+00 1 -1 2
4286 1429 4 -8.1999999999999995e-01 1.3003860743312163e+00 4.9479704134710278e+00 2.6695453877754969e+00 0 0 0
5128 1710 3 4.0999999999999998e-01 1.1938281034758578e+00 1.4108293671645094e+00 9.0513780327301188e+00 0 0 0
1262 421 4 -8.1999999999999995e-01 4.7358581043298278e+00 8.8381834797608327e+00 1.8666382005515729e+00 0 -2 0
3812 1271 4 -8.1999999999999995e-01 8.0714481996376595e+00 1.6964459136803023e+00 1.2075666381891741e+00 0 0 2
4712 1571 4 -8.1999999999999995e-01 3.7115310933133396e+00 5.0219966096947761e+00 1.1416203512172445e+00 0 1 1
349 117 3 4.0999999999999998e-01 6.7323545541162471e+00 3.5744067830245423e+00 7.1705747193248222e+00 1 1 0
3813 1271 3 4.0999999999999998e-01 8.4007739837234681e+00 1.1505985294308583e+00 3.7519564609926481e-01 0 0 2
2243 748 4 -8.1999999999999995e-01 3.2913413824130693e+00 3.1964450495184931e+00 4.7912516534015035e+00 0 2 1
350 117 4 -8.1999999999999995e-01 7.5627142152487874e+00 2.9496824057884683e+00 6.9028567259333604e+00 1 1 0
3608 1203 4 -8.1999999999999995e-01 7.9487360230114170e+00 8.2865267914419327e+00 6.4676430523459336e+00 0 1 0
909 303 3 4.0999999999999998e-01 5.5237867753094658e+00 5.8297114952367828e+00 7.4062079479684151e+00 1 2 1
4563 1521 3 4.0999999999999998e-01 5.4214523579218517e+00 6.7970286820215176e+00 9.3755526378396841e+00 0 -1 0
1265 422 4 -8.1999999999999995e-01 6.0573713396362028e-01 7.5781281552340261e+00 8.7016721907221797e+00 1 0 0
3600 1200 3 4.0999999999999998e-01 8.0532379290358662e+00 1.3326192046700596e+00 7.1094292018406051e+00 1 1 -1
360 120 3 4.0999999999999998e-01 4.7136871471946105e+00 1.7669508214788170e+00 8.8222155889664844e+00 0 1 1
351 117 3 4.0999999999999998e-01 8.3955622493425128e+00 3.4895607380386289e+00 7.2280400377475731e+00 1 1 0
2150 717 4 -8.1999999999999995e-01 5.6630801252394010e+00 9.7889697059417902e+00 6.5212716589653876e+00 0 0 1
6095 2032 4 -8.1999999999999995e-01 3.7854995875707242e+00 2.3889947013280372e-01 4.8578698163856764e+00 1 -1 1
6719 2240 4 -8.1999999999999995e-01 4.8457655087206399e+00 4.2604283241916585e+00 7.1334873437032709e+00 1 -1 2
5082 1694 3 4.0999999999999998e-01 2.0265039847484507e+00 6.2360436686319733e+00 6.3108320091476511e+00 0 0 1
1638 546 3 4.0999999999999998e-01 1.0014401577054365e+01 1.0404661144769696e+01 4.7196840677919000e-01 0 0 0
795 265 3 4.0999999999999998e-01 4.8367255180163671e+00 1.9535312365314361e+00 1.7473014850281665e+00 0 1 0
4711 1571 3 4.0999999999999998e-01 2.7677340048971040e+00 5.0445605829931344e+00 1.4974169912033670e+00 0 1 1
917 306 4 -8.1999999999999995e-01 1.0169493722338530e+01 9.3427672349075728e+00 3.5207573330063577e+00 0 -1 -2
2683 895 3 4.0999999999999998e-01 4.9809675146941768e+00 9.9208800738583207e+00 8.0078102115719432e+00 0 1 1
4596 1532 3 4.0999999999999998e-01 8.7278213285415536e+00 4.1461483804830364e+00 1.7638730912217688e+00 0 0 0
1955 652 4 -8.1999999999999995e-01 1.0267644008685744e+01 4.1472661948341880e+00 7.5294937593732945e+00 0 0 1
7312 2438 3 4.0999999999999998e-01 1.7286402829283369e+00 2.5859350445858440e+00 6.8813024523785282e+00 1 0 0
1263 421 3 4.0999999999999998e-01 4.5910429447484153e+00 8.4492067761452034e+00 2.8500116795354544e+00 0 -2 0
7224 2408 3 4.0999999999999998e-01 8.8936340462053676e-01 4.8980133108603718e+00 6.8590603023186236e-01 0 -1 1
5129 1710 4 -8.1999999999999995e-01 1.3150004453323831e+00 4.6203113390157013e-01 9.4923030401622608e+00 0 0 0
4562 1521 4 -8.1999999999999995e-01 5.0587569961162560e+00 6.9359307867297391e+00 1.0350248724988885e+01 0 -1 0
2684 895 4 -8.1999999999999995e-01 4.6756917795283499e+00 1.0112918971582884e+01 9.0253120320388849e+00 0 1 1
1956 652 3 4.0999999999999998e-01 1.0570039161021406e+01 4.1287901940717839e+00 6.5558141315492424e+00 0 0 1
6448 2150 3 4.0999999999999998e-01 2.5708042953879060e+00 2.2525230699058669e+00 4.2396652713456573e-01 1 0 1
6383 2128 4 -8.1999999999999995e-01 5.8406463394460539e+00 1.8610856738821357e-01 8.5146048822423754e+00 2 -1 0
655 219 3 4.0999999999999998e-01 3.7410426678265227e+00 1.0375367464774813e+01 5.7582144103165644e+00 0 2 1
3598 1200 3 4.0999999999999998e-01 9.2112562001790437e+00 2.3185287219898523e-01 6.4946434009507312e+00 1 1 -1
4064 1355 4 -8.1999999999999995e-01 9.1064977089051524e+00 1.0590105389876681e+00 1.3507174332456698e+01 -1 1 1
3920 1307 4 -8.1999999999999995e-01 6.6666827763127223e+00 1.7144819498259234e+00 1.4316577335745864e+01 1 -1 0
6101 2034 4 -8.1999999999999995e-01 7.1413153534244698e+00 2.8761898161901600e+00 1.6561766547144533e+01 1 2 -1
6615 2205 3 4.0999999999999998e-01 3.7700005188267127e+00 2.5518717623087603e+00 1.9370186207307530e+01 0 2 0
1142 381 4 -8.1999999999999995e-01 6.6829839739549852e+00 8.1539508694990148e-01 1.1152010839758818e+01 2 1 0
3664 1222 3 4.0999999999999998e-01 8.4803530847778461e+00 5.0164912165063473e+00 1.3237875046961188e+01 0 -1 0
6842 2281 4 -8.1999999999999995e-01 3.6261982063510123e+00 2.6266218365922431e+00 1.6360284273003234e+01 0 0 1
5101 1701 3 4.0999999999999998e-01 1.2923104323007462e+00 8.4376248535056639e+00 1.2988963999771016e+01 0 0 -1
1270 424 3 4.0999999999999998e-01 2.1136719773444228e+00 9.7312096317734575e-01 1.0971771590036408e+01 1 0 -1
316 106 3 4.0999999999999998e-01 1.5393283911564271e+00 2.7106394103730884e+00 1.6056176846076252e+01 1 0 0
1096 366 3 4.0999999999999998e-01 3.7508001089893575e+00 9.1825496868035916e+00 1.3436045250506529e+01 0 -1 0
770 257 4 -8.1999999999999995e-01 1.0232536134103844e+01 3.3179362705488256e+00 1.6916747163144855e+01 0 2 0
5818 1940 3 4.0999999999999998e-01 5.0559839944408784e+00 5.9134323893968554e+00 1.8420484888953929e+01 0 1 0
3726 1242 3 4.0999999999999998e-01 2.3427022439320768e+00 3.3915198833724811e+00 2.0535393302564177e+01 0 -1 1
6735 2245 3 4.0999999999999998e-01 3.9196722688434380e+00 6.1607507895717388e+00 1.6455672570830757e+01 0 1 -1
5820 1940 3 4.0999999999999998e-01 4.9149294130828238e+00 4.3735916272812005e+00 1.8944949284073807e+01 0 1 0
4725 1575 3 4.0999999999999998e-01 1.0267481165396978e+01 2.1882581289611873e+00 1.3969740105198730e+01 1 0 0
3121 1041 3 4.0999999999999998e-01 8.9344774621687151e+00 7.9427488347663040e+00 1.0817835975572281e+01 0 0 1
2260 754 3 4.0999999999999998e-01 4.9150548099754801e+00 1.0289327623783208e+01 1.6940350824790080e+01 0 0 1
1607 536 4 -8.1999999999999995e-01 7.0726381500983218e+00 7.5781212807606879e+00 1.7383298605875886e+01 0 1 0
4021 1341 3 4.0999999999999998e-01 2.7473897255129205e+00 5.3496409946589214e+00 1.4617979108831447e+01 1 0 -1
2370 790 3 4.0999999999999998e-01 1.4460438104717230e+00 9.6881872239359623e+00 1.6053134357735082e+01 2 0 1
3245 1082 4 -8.1999999999999995e-01 1.8988923164966470e-01 8.4912576147131364e+00 1.6278263398098026e+01 1 0 -1
3326 1109 4 -8.1999999999999995e-01 8.6292559621540885e+00 8.5272244704880968e+00 1.4954566662209327e+01 0 1 1
6621 2207 3 4.0999999999999998e-01 1.2795790452593869e+00 1.0317993897949835e+01 1.9431241143253573e+01 0 0 1
3489 1163 3 4.0999999999999998e-01 6.9767306140267644e+00 4.2095063032091815e+00 1.9118996322923145e+01 0 1 0
5103 1701 3 4.0999999999999998e-01 2.3673042299686373e+00 8.5532212520077575e+00 1.1654237643887027e+01 0 0 -1
2315 772 4 -8.1999999999999995e-01 1.6061261930878681e+00 6.7609138134344580e+00 1.8952966973500867e+01 1 2 -1
5033 1678 4 -8.1999999999999995e-01 4.8593887617785034e+00 2.4575827106561317e+00 1.2285420317474873e+01 1 1 -1
3725 1242 4 -8.1999999999999995e-01 2.3623578208288931e+00 2.4136648009296708e+00 2.0328977914316823e+01 0 -1 1
5638 1880 3 4.0999999999999998e-01 5.5042147458750872e+00 6.5104308360671332e+00 1.1781267330475151e+01 1 0 0
420 140 3 4.0999999999999998e-01 6.1781116326109347e+00 9.5188116077702158e+00 1.3377920297868332e+01 1 -1 1
5386 1796 3 4.0999999999999998e-01 1.9868633606436470e+00 4.3319123879929098e+00 1.1226501369176784e+01 1 0 0
6400 2134 3 4.0999999999999998e-01 7.6289487578838973e+00 7.8459533476184273e-01 1.8789850234735827e+01 -1 1 -1
1271 424 4 -8.1999999999999995e-01 2.3974853415448836e+00 1.4850898174438072e+00 1.1802780239186276e+01 1 0 -1
6733 2245 3 4.0999999999999998e-01 4.0480927793363355e+00 7.6055596317424099e+00 1.7285022238505729e+01 0 1 -1
6734 2245 4 -8.1999999999999995e-01 4.0403441049543094e+00 6.6000126864404427e+00 1.7436805054881596e+01 0 1 -1
6619 2207 3 4.0999999999999998e-01 1.7377737592100149e+00 8.7643748993938200e+00 1.9333564252896156e+01 0 0 1
4228 1410 3 4.0999999999999998e-01 8.2766287342787557e+00 5.7221070774516622e+00 1.5112396892805561e+01 1 1 0
6614 2205 4 -8.1999999999999995e-01 4.6247064605062871e+00 2.8206766592585897e+00 1.8861610546904391e+01 0 2 0
418 140 3 4.0999999999999998e-01 7.7381685430652674e+00 9.3550441620917262e+00 1.3563610155237571e+01 1 -1 1
2261 754 4 -8.1999999999999995e-01 4.2612255360432068e+00 9.6157545298424996e+00 1.6557925290519002e+01 0 0 1
317 106 4 -8.1999999999999995e-01 7.9119287714869646e-01 2.8651857402725445e+00 1.5389500890660166e+01 1 0 0
6620 2207 4 -8.1999999999999995e-01 2.0027617826546438e+00 9.6590794039050731e+00 1.9705812175020462e+01 0 0 1
3122 1041 4 -8.1999999999999995e-01 8.2737759785849612e+00 7.4952973299164105e+00 1.1481643543324498e+01 0 0 1
1606 536 3 4.0999999999999998e-01 7.2555958715085467e+00 8.0388155824665226e+00 1.8234357701705719e+01 0 1 0
1097 366 4 -8.1999999999999995e-01 4.6889955207159568e+00 9.1294889073119379e+00 1.3857287300264854e+01 0 -1 0
6841 2281 3 4.0999999999999998e-01 3.7188509290724516e+00 1.6943287712697246e+00 1.5984457394615026e+01 0 0 1
6742 2248 3 4.0999999999999998e-01 8.4291243739203541e+00 9.6762397291321145e-01 1.6835005817825849e+01 1 0 0
5819 1940 4 -8.1999999999999995e-01 5.5403250317623804e+00 5.2253144584823588e+00 1.9061322036036710e+01 0 1 0
3975 1325 3 4.0999999999999998e-01 9.4787365657549145e+00 4.0613206004946329e+00 1.9592588277380766e+01 1 2 0
5690 1897 4 -8.1999999999999995e-01 4.2715008095505640e+00 5.4904969286845073e+00 1.5032259440111888e+01 0 1 0
5032 1678 3 4.0999999999999998e-01 4.1096383022424021e+00 1.9433299749591506e+00 1.1850062474520405e+01 1 1 -1
6843 2281 3 4.0999999999999998e-01 3.8128106140610019e+00 2.6442800445754839e+00 1.7412451618356474e+01 0 0 1
2316 772 3 4.0999999999999998e-01 2.5147145981014920e+00 6.5293128021718747e+00 1.8578436026137894e+01 1 2 -1
3487 1163 3 4.0999999999999998e-01 7.5534515779026998e+00 2.6929490525130091e+00 1.9601045790137967e+01 0 1 0
3666 1222 3 4.0999999999999998e-01 8.6200834640434749e+00 6.5858259953826677e+00 1.2728627538300987e+01 0 -1 0
1098 366 3 4.0999999999999998e-01 4.7486323340956806e+00 9.5409630905780141e+00 1.4762181723950475e+01 0 -1 0
5387 1796 4 -8.1999999999999995e-01 1.0972923449387748e+00 4.1329608250306684e+00 1.1705154096898777e+01 1 0 0
5034 1678 3 4.0999999999999998e-01 4.6335988087119544e+00 3.4233315946620566e+00 1.1979643045051933e+01 1 1 -1
6401 2134 4 -8.1999999999999995e-01 6.9361333447403650e+00 1.1750824624237504e+00 1.9427940906549235e+01 -1 1 -1
4051 1351 3 4.0999999999999998e-01 6.9116265277283659e+00 1.0220108296894153e+01 1.1310204780117546e+01 1 1 1
6100 2034 3 4.0999999999999998e-01 7.2940585339799888e+00 3.9039998109853427e+00 1.6314006019378972e+01 1 2 -1
3488 1163 4 -8.1999999999999995e-01 7.8061716984967839e+00 3.6064565902834369e+00 1.9145751647022848e+01 0 1 0
3171 1057 3 4.0999999999999998e-01 6.1806753516944255e+00 5.3793064589087196e+00 2.0583154744957007e+01 0 0 1
318 106 3 4.0999999999999998e-01 1.0498445986424827e+00 3.7516629268155977e+00 1.4869028508768716e+01 1 0 0
5182 1728 3 4.0999999999999998e-01 1.0426308488346118e+01 1.0542666280975459e+01 2.0347547488843610e+01 -1 1 0
1143 381 3 4.0999999999999998e-01 6.0773906817840979e+00 1.4485030563285197e+00 1.1722547596292801e+01 2 1 0
419 140 4 -8.1999999999999995e-01 7.0990678181957900e+00 9.8446372954853629e+00 1.2934860764773287e+01 1 -1 1
4022 1341 4 -8.1999999999999995e-01 1.7364640165690495e+00 5.2119055605084519e+00 1.4515366865074347e+01 1 0 -1
3919 1307 3 4.0999999999999998e-01 6.6464328111532724e+00 2.0748759170737499e+00 1.5293270561817502e+01 1 -1 0
2709 903 3 4.0999999999999998e-01 1.4047212659350727e+00 4.5214555391976724e-01 1.2738158961716319e+01 0 1 0
5691 1897 3 4.0999999999999998e-01 4.2220691068726772e+00 4.5322055651502948e+00 1.5341487319420692e+01 0 1 0
2314 772 3 4.0999999999999998e-01 9.3036773098322356e-01 6.0895328957206347e+00 1.8606874842770026e+01 1 2 -1
4229 1410 4 -8.1999999999999995e-01 7.9074164998150787e+00 5.3765860574583746e+00 1.6020036258770173e+01 1 1 0
5639 1880 4 -8.1999999999999995e-01 5.6221058234257271e+00 6.3292148259504506e+00 1.2783042572024350e+01 1 0 0
3325 1109 3 4.0999999999999998e-01 7.9352866495987637e+00 8.1222566895458446e+00 1.5618802709369886e+01 0 1 1
1608 536 3 4.0999999999999998e-01 6.2011422437493700e+00 7.0598824160653031e+00 1.7534930702602850e+01 0 1 0
5909 1970 4 -8.1999999999999995e-01 1.0210125518656245e+01 3.8209209268198800e+00 1.1474156060867106e+01 0 -1 0
3921 1307 3 4.0999999999999998e-01 5.9749835461468868e+00 2.1335422383868567e+00 1.3719709698907703e+01 1 -1 0
1272 424 3 4.0999999999999998e-01 1.8607910970112256e+00 2.3780847564506771e+00 1.1921573882444500e+01 1 0 -1
6102 2034 3 4.0999999999999998e-01 7.1229545733803157e+00 2.8793265968299733e+00 1.7588088852225276e+01 1 2 -1
5689 1897 3 4.0999999999999998e-01 4.8862991316502553e+00 5.6504740828194384e+00 1.4231012791401147e+01 0 1 0
3123 1041 3 4.0999999999999998e-01 7.5719802670258449e+00 8.1300564711787953e+00 1.1843253558610806e+01 0 0 1
6613 2205 3 4.0999999999999998e-01 5.2964723025343483e+00 2.0223335784033178e+00 1.8972774156859543e+01 0 2 0
2262 754 3 4.0999999999999998e-01 3.3550536011531413e+00 9.9898327828785831e+00 1.6420718993032761e+01 0 0 1
3099 1033 3 4.0999999999999998e-01 3.5195948589856236e+00 9.1786395297767764e-01 1.4041345529724893e+01 0 0 1
3665 1222 4 -8.1999999999999995e-01 8.8279463788390693e+00 5.9195928947378471e+00 1.3532445008264611e+01 0 -1 0
2453 818 4 -8.1999999999999995e-01 2.3215077780083400e+00 4.9410153506673691e+00 2.0751693916840267e+01 2 0 1
4230 1410 3 4.0999999999999998e-01 7.7221721505173733e+00 6.1855132520876746e+00 1.6595502017688798e+01 1 1 0
5102 1701 4 -8.1999999999999995e-01 2.1575131123422149e+00 8.8261675620003857e+00 1.2636184233878067e+01 0 0 -1
3327 1109 3 4.0999999999999998e-01 9.3110820937947008e+00 9.1492936311095683e+00 1.5529972106595672e+01 0 1 1
769 257 3 4.0999999999999998e-01 9.3263644982850966e+00 3.7633828225880950e+00 1.6709152580034008e+01 0 2 0
5640 1880 3 4.0999999999999998e-01 5.7170332755128612e+00 7.1450062419035039e+00 1.3307471420215018e+01 1 0 0
4371 1457 3 4.0999999999999998e-01 7.6383915785011789e+00 9.0333983660902000e+00 2.0270874373416223e+01 -1 0 1
4023 1341 3 4.0999999999999998e-01 1.2666551402648625e+00 5.9381865424370881e+00 1.4086071800253039e+01 1 0 -1
5388 1796 3 4.0999999999999998e-01 1.0876478909417671e+00 4.5602959958663201e+00 1.2625230835100087e+01 1 0 0
3724 1242 3 4.0999999999999998e-01 1.3388665935059347e+00 2.1404106976207840e+00 2.0487671357250075e+01 0 -1 1
2454 818 3 4.0999999999999998e-01 1.9050818731354919e+00 5.7168923914786953e+00 2.0149557833310805e+01 2 0 1
4065 1355 3 4.0999999999999998e-01 8.2161783189693054e+00 1.3688368802197550e+00 1.3935775720006470e+01 -1 1 1
7167 2389 3 4.0999999999999998e-01 3.3929455918381803e+00 9.8722440983433941e+00 2.0756935657773329e+01 1 -1 1
4370 1457 4 -8.1999999999999995e-01 7.4340095265500192e+00 8.3552417110658634e+00 2.0992617252753373e+01 -1 0 1
6743 2248 4 -8.1999999999999995e-01 8.6707370466463107e+00 3.4267760320804513e-01 1.7590334248306689e+01 1 0 0
1148 383 4 -8.1999999999999995e-01 3.7359029199412075e+00 4.6032823232745121e+00 1.0754493312457665e+01 -1 0 1
7182 2394 3 4.0999999999999998e-01 1.0287893088559253e+01 7.3654212973877096e+00 1.3314487112924569e+01 1 1 1
3098 1033 4 -8.1999999999999995e-01 4.0107553971508336e+00 2.6808455203319920e-01 1.4608269015553342e+01 0 0 1
3973 1325 3 4.0999999999999998e-01 1.0200547561602081e+01 5.2449321311533454e+00 2.0292210534071764e+01 1 2 0
5485 1829 3 4.0999999999999998e-01 8.5948645504824910e+00 4.4074234335310152e+00 1.0736879018980821e+01 0 -1 0
3244 1082 3 4.0999999999999998e-01 5.1194203735986343e-01 7.7408406106485943e+00 1.6947575930994539e+01 1 0 -1
6402 2134 3 4.0999999999999998e-01 6.3357774317834625e+00 5.5273244562540258e-01 1.9996241357519555e+01 -1 1 -1
5908 1970 3 4.0999999999999998e-01 1.0412986919614790e+01 2.8373635523346792e+00 1.1285485691805466e+01 0 -1 0
5487 1829 3 4.0999999999999998e-01 7.8692664143740343e+00 5.9098022764284757e+00 1.0746900206832505e+01 0 -1 0
3974 1325 4 -8.1999999999999995e-01 1.0438550488582051e+01 4.4359653873643081e+00 1.9670392176773877e+01 1 2 0
636 212 3 4.0999999999999998e-01 1.0475445677635449e+01 1.0362861527956518e+01 1.3884412499347665e+01 0 1 1
4063 1355 3 4.0999999999999998e-01 8.8623573643511886e+00 2.4762274112279012e-01 1.2917176414563960e+01 -1 1 1
4037 1346 4 -8.1999999999999995e-01 1.0479127811415681e+01 1.0030534624134008e+01 1.6174108141986139e+01 0 0 -2
5910 1970 3 4.0999999999999998e-01 1.0395924410978902e+01 3.9720629956445883e+00 1.2473568907333920e+01 0 -1 0
1795 599 3 4.0999999999999998e-01 2.0617426970026989e+00 1.0489607892912835e+01 1.2839713389832170e+01 1 0 0
5183 1728 4 -8.1999999999999995e-01 1.0516165467229422e+01 1.0508755550713284e+01 1.9297024539836993e+01 -1 1 0
1149 383 3 4.0999999999999998e-01 4.2740254142226073e+00 5.5153044165807792e+00 1.0670836364482602e+01 -1 0 1
4274 1425 4 -8.1999999999999995e-01 7.7597465659200697e+00 1.0570071127215240e+01 1.9129484752813269e+01 -2 0 0
2153 718 4 -8.1999999999999995e-01 3.4442003066701878e+00 5.4751344263270978e+00 2.7756300500328102e+01 0 -1 -1
3220 1074 3 4.0999999999999998e-01 6.9496735702683328e+00 3.3214238710677351e+00 2.6488511239843923e+01 0 1 2
5125 1709 3 4.0999999999999998e-01 7.4906719614318842e+00 8.2192627481779990e-01 2.3228903188712344e+01 -1 -2 1
3493 1165 3 4.0999999999999998e-01 4.5577225235224725e+00 8.8039452104804532e+00 3.0719953208947146e+01 0 -1 0
981 327 3 4.0999999999999998e-01 4.4806310672925944e+00 8.0801150031928994e+00 2.6986441815049847e+01 0 1 0
965 322 4 -8.1999999999999995e-01 9.1700777426897950e+00 9.9115942069592204e+00 3.0343610254944512e+01 0 1 -1
6350 2117 4 -8.1999999999999995e-01 2.6163189383886154e+00 6.6643904549344910e+00 3.0071918728062727e+01 0 0 0
181 61 3 4.0999999999999998e-01 6.8250828798881287e+00 2.6652566344327209e+00 2.2965972892919645e+01 0 2 0
2568 856 3 4.0999999999999998e-01 5.8683853543304334e+00 4.0596255232391176e-01 2.4914205505752097e+01 -1 1 -1
3221 1074 4 -8.1999999999999995e-01 6.1061199690108774e+00 3.8049992529045995e+00 2.6139795968721863e+01 0 1 2
3495 1165 3 4.0999999999999998e-01 4.1963574832931325e+00 7.4062741676936801e+00 3.0167471175761086e+01 0 -1 0
1668 556 3 4.0999999999999998e-01 9.8940502494675417e+00 7.5368428640255978e+00 2.6833615944844901e+01 0 -1 1
1814 605 4 -8.1999999999999995e-01 5.9477382899836178e+00 6.5499470404105535e+00 2.7567326911826083e+01 0 0 -1
4619 1540 4 -8.1999999999999995e-01 6.6665849695531278e+00 6.2373525572297195e-01 2.9483028339888428e+01 0 1 -1
3494 1165 4 -8.1999999999999995e-01 5.0126622323329348e+00 8.0401620050601341e+00 3.0282860261902883e+01 0 -1 0
2011 671 3 4.0999999999999998e-01 4.4987851038899995e+00 6.4411887860284578e+00 2.2935562363346836e+01 2 -1 -1
2889 963 3 4.0999999999999998e-01 8.1277490508268038e+00 7.9706085361954688e+00 2.5299888262050242e+01 0 1 0
2529 843 3 4.0999999999999998e-01 1.0343907712156573e+01 7.3141924879395521e+00 2.9391250415639679e+01 0 -1 1
5088 1696 3 4.0999999999999998e-01 8.0209985320509922e+00 5.3232121041957825e-01 2.5570849809547493e+01 -1 2 0
4297 1433 3 4.0999999999999998e-01 1.2225027635825869e+00 5.7647800602183716e+00 2.5185483224177315e+01 0 0 0
667 223 3 4.0999999999999998e-01 3.6111901795515049e+00 1.8346417804434714e+00 2.7602774880432069e+01 -1 1 0
68 23 4 -8.1999999999999995e-01 4.3724097993382252e+00 1.0333720020560828e+00 2.5176004752587605e+01 0 0 0
588 196 3 4.0999999999999998e-01 2.0952579699413709e+00 2.7870908924653572e+00 2.7407633352353834e+01 2 0 -1
6351 2117 3 4.0999999999999998e-01 2.6911352543585747e+00 6.2322834688189293e+00 2.9106401584752042e+01 0 0 0
3583 1195 3 4.0999999999999998e-01 1.1461239997738606e+00 1.4941515631704549e+00 2.5977046176842030e+01 -1 0 0
4879 1627 3 4.0999999999999998e-01 5.6163675412319645e+00 3.8124593765887367e+00 2.9609760529548261e+01 0 0 -1
5030 1677 4 -8.1999999999999995e-01 8.2808512477861331e+00 2.9139529054123821e+00 2.7754240469029465e+01 1 1 0
5127 1709 3 4.0999999999999998e-01 8.4612295599462186e+00 8.7807171294417863e-01 2.2042937007095876e+01 -1 -2 1
3170 1057 4 -8.1999999999999995e-01 6.8134561102703239e+00 5.4197260389222528e+00 2.1441853265560304e+01 0 0 1