LAMMPS data file via write_data, version 5 Jun 2019, timestep = 17500000

7349 atoms
5 atom types
4899 bonds
2 bond types
2451 angles
2 angle types
1 impropers
1 improper types

1.5519297081455363e-01 4.1845807029189409e+01 xlo xhi
1.5469297081455124e-01 4.1845307029189406e+01 ylo yhi
1.5469297081455124e-01 4.1845307029189406e+01 zlo zhi

#Masses
#
#1 12.01
#2 40.08
#3 1.01
#4 16
#5 16
#
#Bond Coeffs # harmonic
#
#1 20.4246 1.3042
#2 22.965 1.012

Atoms # full

3048 1016 3 4.0999999999999998e-01 2.0414445771178897e+00 1.9037865355537471e+00 9.5492728575891856e+00 1 -3 -2
7236 2412 3 4.0999999999999998e-01 2.1753693680218715e+00 8.5239845632104405e+00 9.9005992812390389e+00 2 0 2
6159 2053 3 4.0999999999999998e-01 3.2810557676508036e+00 6.1162188829399016e+00 7.5455604774870064e+00 4 0 1
4008 1336 3 4.0999999999999998e-01 9.9547035811329341e+00 9.3566181146204705e+00 7.6127421302846843e+00 -1 -2 6
892 298 3 4.0999999999999998e-01 7.3748893497909107e-01 1.6612469939308974e+00 5.2562552458387195e+00 -3 2 -3
893 298 4 -8.1999999999999995e-01 3.2824816231516946e-01 7.3809743807786221e-01 5.1954668579145373e+00 -3 2 -3
6583 2195 3 4.0999999999999998e-01 1.2220952376603336e+00 7.5955123514814895e+00 6.8375458351436311e+00 4 1 0
712 238 3 4.0999999999999998e-01 1.8226857122621045e+00 8.8785521040796134e+00 3.2296017759897184e+00 2 0 2
5529 1843 3 4.0999999999999998e-01 6.9798808223777762e+00 3.7906486479967674e+00 1.2232243144957811e+00 0 -1 4
56 19 4 -8.1999999999999995e-01 1.0562979986165105e+01 3.9975008896660463e-01 1.0482676799726038e+01 -1 -1 0
3082 1028 3 4.0999999999999998e-01 2.6410912144687342e+00 6.6117684962370893e+00 4.2798455510137492e+00 1 0 -1
713 238 4 -8.1999999999999995e-01 1.1331615901057885e+00 9.4204029847992494e+00 2.7770655104416782e+00 2 0 2
363 121 3 4.0999999999999998e-01 3.7112353728121255e+00 9.8790638225406351e+00 5.8921200371137417e+00 0 1 1
1655 552 4 -8.1999999999999995e-01 1.7055004582932289e+00 4.0510640197072227e+00 9.2500833712517974e+00 -1 -4 3
3438 1146 3 4.0999999999999998e-01 4.0378509629049946e+00 7.6909023441081041e+00 2.9755085147716471e+00 -2 4 -1
514 172 3 4.0999999999999998e-01 1.0405810155276288e+01 4.5457385287253889e+00 7.8511377186306364e+00 4 -1 -3
3047 1016 4 -8.1999999999999995e-01 2.5103507600289201e+00 1.0607398654880966e+00 9.1474307965231105e+00 1 -3 -2
3084 1028 3 4.0999999999999998e-01 3.0855789663597113e+00 8.1031622065447273e+00 4.8875950695653501e+00 1 0 -1
388 130 3 4.0999999999999998e-01 2.8335945325602023e+00 6.1977018371497450e-01 2.9633304964979286e+00 -1 -1 -1
7293 2431 3 4.0999999999999998e-01 3.2891775986020080e+00 4.6113146161245959e+00 9.9004045078208802e-01 -2 2 0
4661 1554 4 -8.1999999999999995e-01 4.1221797092367476e+00 8.4002440541552730e+00 9.6218846230791506e+00 3 7 5
3091 1031 3 4.0999999999999998e-01 5.1151736928137543e+00 6.0644213740067556e+00 6.1584668349926801e+00 2 3 -2
4421 1474 4 -8.1999999999999995e-01 7.4165339824323198e+00 1.3249784796644002e+00 3.7392482500517752e+00 -1 2 3
7204 2402 3 4.0999999999999998e-01 8.3809305576510251e+00 1.6056745036102429e+00 5.6334728540068957e+00 -3 5 -1
362 121 4 -8.1999999999999995e-01 3.1873848297368457e+00 9.0316750009079207e+00 6.2437812248335511e+00 0 1 1
4007 1336 4 -8.1999999999999995e-01 9.2871709802594449e+00 8.5568913245741616e+00 7.6447351696964310e+00 -1 -2 6
6584 2195 4 -8.1999999999999995e-01 4.0263194052004031e-01 8.1151039332334385e+00 7.1741972996937617e+00 4 1 0
516 172 3 4.0999999999999998e-01 9.6397821981146699e+00 3.1814360296778394e+00 7.6996263336306336e+00 4 -1 -3
5875 1959 3 4.0999999999999998e-01 7.4303737716009159e+00 8.3245776480967297e+00 4.5248588342859604e+00 0 -2 -1
5442 1814 3 4.0999999999999998e-01 3.9380911056255670e+00 2.7836022301146377e+00 2.3141631784209684e+00 0 -1 2
3309 1103 3 4.0999999999999998e-01 9.6757775361468763e+00 6.0910787248504112e+00 3.4213789986759449e+00 0 3 -2
3307 1103 3 4.0999999999999998e-01 9.4181944702942264e+00 5.4095000900941708e+00 4.8600761082463553e+00 0 3 -2
4899 1633 3 4.0999999999999998e-01 4.5256326881043289e+00 2.5395860570011783e+00 6.8952780505216982e+00 2 0 3
4898 1633 4 -8.1999999999999995e-01 3.6239353352306138e+00 2.0526778409069482e+00 6.6756633443941285e+00 2 0 3
515 172 4 -8.1999999999999995e-01 1.0368666620311229e+01 3.6315716897506101e+00 8.2193575759443380e+00 4 -1 -3
728 243 4 -8.1999999999999995e-01 6.1793861112326320e+00 3.3766966023657812e+00 6.9632400704911595e+00 -1 0 -2
57 19 3 4.0999999999999998e-01 9.6867861878327464e+00 5.3530998765687532e-01 9.9875772362439985e+00 -1 -1 0
1730 577 4 -8.1999999999999995e-01 4.2999370669780408e+00 4.5370912627516651e+00 2.3118060604925934e+00 4 0 1
3308 1103 4 -8.1999999999999995e-01 8.9572397815709923e+00 5.7186619184051031e+00 4.0018638877542418e+00 0 3 -2
2376 792 3 4.0999999999999998e-01 1.0254486011167645e+01 6.8849283846092186e+00 7.2833644948793612e+00 4 -3 -1
5877 1959 3 4.0999999999999998e-01 7.7115451763769700e+00 6.8046191782155336e+00 3.8065233452262874e+00 0 -2 -1
1074 358 3 4.0999999999999998e-01 1.0434198460363566e+01 3.9118637216142709e+00 1.1823094953966158e+00 -1 -1 -4
5876 1959 4 -8.1999999999999995e-01 7.0490887244383593e+00 7.5457009880525492e+00 3.9573518690241416e+00 0 -2 -1
4897 1633 3 4.0999999999999998e-01 2.9485413485887020e+00 2.7081575653490804e+00 6.2188371311903010e+00 2 0 3
5440 1814 3 4.0999999999999998e-01 3.9464143102524307e+00 1.9273947652928114e+00 8.3646816845398231e-01 0 -1 2
3093 1031 3 4.0999999999999998e-01 6.4860763041661578e+00 6.3046546537831158e+00 5.1524227391170516e+00 2 3 -2
152 51 4 -8.1999999999999995e-01 1.3389457940930654e+00 3.3643135268997031e+00 1.3547836977680374e+00 3 -2 1
361 121 3 4.0999999999999998e-01 3.6370849509408303e+00 8.8622069017097900e+00 7.1048613894005079e+00 0 1 1
151 51 3 4.0999999999999998e-01 1.7954693658982268e+00 3.8761439122625339e+00 5.2296335571069719e-01 3 -2 1
1729 577 3 4.0999999999999998e-01 4.2745844277257881e+00 5.5589769318705562e+00 2.2372119805548190e+00 4 0 1
1799 600 4 -8.1999999999999995e-01 1.3427251167936858e+00 3.7312194481540581e+00 5.6808051839546039e+00 1 2 -1
1489 497 3 4.0999999999999998e-01 5.9443593605016831e+00 8.6083358467774982e+00 1.3820106203580749e+00 -2 3 4
6585 2195 3 4.0999999999999998e-01 5.8395006080321554e-01 8.3776821348160002e+00 8.1056849349419640e+00 4 1 0
5575 1859 3 4.0999999999999998e-01 1.0459579685758005e+01 7.0319559826885696e+00 9.8723602801183823e+00 1 0 8
153 51 3 4.0999999999999998e-01 2.0940546279264893e+00 2.6308120477100014e+00 1.4965279774385860e+00 3 -2 1
3092 1031 4 -8.1999999999999995e-01 6.0752531517540431e+00 5.8341471474688813e+00 5.9751401057482445e+00 2 3 -2
5230 1744 3 4.0999999999999998e-01 1.2468818371634400e+00 4.3905895218433404e+00 2.4770552634783631e+00 2 0 2
1656 552 3 4.0999999999999998e-01 8.3736848894749771e-01 4.5702411361158788e+00 9.2006152518187960e+00 -1 -4 3
3655 1219 3 4.0999999999999998e-01 8.1728231781133758e+00 4.9908542489008062e-01 7.8817439135867380e+00 -4 2 0
3437 1146 4 -8.1999999999999995e-01 4.8955070788014066e+00 7.4748448153282059e+00 2.4605602929158277e+00 -2 4 -1
7205 2402 4 -8.1999999999999995e-01 8.4527254624343620e+00 1.9781432955531812e+00 6.6405497745947475e+00 -3 5 -1
4492 1498 3 4.0999999999999998e-01 5.0365017038428963e+00 7.3750137868975107e-01 6.2377801010059288e+00 4 -2 0
3436 1146 3 4.0999999999999998e-01 5.7482527911106285e+00 7.5087243127179102e+00 2.9889581475044538e+00 -2 4 -1
4420 1474 3 4.0999999999999998e-01 8.0065351519088352e+00 5.6885770172784422e-01 3.3212202983639982e+00 -1 2 3
3472 1158 3 4.0999999999999998e-01 9.8852999908505055e+00 3.4211225401139895e+00 9.8485342394766864e+00 -2 1 -1
7322 2441 4 -8.1999999999999995e-01 3.8763366283679406e+00 5.7252558896381558e+00 9.3138352407343206e+00 2 -1 3
6798 2266 3 4.0999999999999998e-01 1.3807976240040307e+00 7.9368978181086201e+00 9.9242859031195341e-01 0 -4 1
7206 2402 3 4.0999999999999998e-01 7.5429057435724571e+00 2.4518070352534651e+00 6.9149281214333813e+00 -3 5 -1
5577 1859 3 4.0999999999999998e-01 9.2730525484759667e+00 7.8085169986262404e+00 9.0176835629710173e+00 1 0 8
714 238 3 4.0999999999999998e-01 2.7060539514236814e-01 8.9429605488563748e+00 2.7929896211429286e+00 2 0 2
6110 2037 4 -8.1999999999999995e-01 6.6139415768505732e+00 1.0856346404703827e+00 2.1226360943665709e-01 -1 -1 -1
6109 2037 3 4.0999999999999998e-01 6.5437667544685034e+00 4.4470139141468562e-01 1.0002686494959132e+00 -1 -1 -1
3046 1016 3 4.0999999999999998e-01 2.9132916693991748e+00 1.2145204280728730e+00 8.1898690177704747e+00 1 -3 -2
2637 879 3 4.0999999999999998e-01 1.8236816975181810e-01 1.0054097760511183e+01 6.8589264363050964e+00 0 0 1
6158 2053 4 -8.1999999999999995e-01 3.2188765677833300e+00 5.8051617541713787e+00 6.5457016835445287e+00 4 0 1
6157 2053 3 4.0999999999999998e-01 2.5227638289224394e+00 5.0756615742240188e+00 6.4642040988545286e+00 4 0 1
1800 600 3 4.0999999999999998e-01 4.5165740722583730e-01 4.0385855712618346e+00 6.0814884075715607e+00 1 2 -1
4087 1363 3 4.0999999999999998e-01 7.5071538083007514e+00 4.4443280523524766e+00 3.4710090589621032e+00 -2 1 2
7323 2441 3 4.0999999999999998e-01 4.6858845421691466e+00 5.0476680044230493e+00 9.2580749903710142e+00 2 -1 3
1798 600 3 4.0999999999999998e-01 1.3785428704635483e+00 4.3116229652080058e+00 4.8201848390493556e+00 1 2 -1
1731 577 3 4.0999999999999998e-01 5.3152823933933657e+00 4.3919250821118334e+00 2.5754659159288953e+00 4 0 1
6801 2267 3 4.0999999999999998e-01 6.9572573263793025e+00 4.2171282545099729e+00 1.0079428503381454e+01 3 4 -1
4088 1363 4 -8.1999999999999995e-01 7.2349074632665884e+00 3.7361458240507526e+00 2.8231182597473579e+00 -2 1 2
2023 675 3 4.0999999999999998e-01 6.5299534051209731e+00 1.0310781212729383e+01 6.1450199290111014e+00 2 3 -1
6800 2267 4 -8.1999999999999995e-01 6.1911586839978980e+00 3.8640989971656738e+00 9.5336348957418586e+00 3 4 -1
2024 675 4 -8.1999999999999995e-01 7.5372516136974008e+00 1.0347279724226325e+01 5.8177356149887247e+00 2 3 -1
5232 1744 3 4.0999999999999998e-01 3.0710704241048037e-01 5.5856950887737220e+00 3.1169168098868707e+00 2 0 2
1654 552 3 4.0999999999999998e-01 2.5608049375863948e+00 4.5872558829693562e+00 9.1866446325066580e+00 -1 -4 3
727 243 3 4.0999999999999998e-01 6.2596138216315671e+00 4.2432871781412773e+00 6.4327676444038033e+00 -1 0 -2
5231 1744 4 -8.1999999999999995e-01 1.1535027490300489e+00 5.0829912924606147e+00 3.2267798774570027e+00 2 0 2
4006 1336 3 4.0999999999999998e-01 8.5423488146694453e+00 8.7987296237541770e+00 7.0414987707891301e+00 -1 -2 6
5441 1814 4 -8.1999999999999995e-01 3.6061285775814111e+00 1.9339321830579996e+00 1.8354252950423766e+00 0 -1 2
5821 1941 3 4.0999999999999998e-01 9.8176818672053159e+00 7.6456417636572294e+00 2.8123034072197078e-01 -2 0 5
3083 1028 4 -8.1999999999999995e-01 2.8497532616555432e+00 7.5787923805126853e+00 4.0062079343429851e+00 1 0 -1
7235 2412 4 -8.1999999999999995e-01 1.1620454922322008e+00 8.7410370345914927e+00 9.8115948783082150e+00 2 0 2
6799 2267 3 4.0999999999999998e-01 5.6005549727938124e+00 3.2915827238472959e+00 1.0185866583455791e+01 3 4 -1
729 243 3 4.0999999999999998e-01 6.3947465415024904e+00 3.6907854127313762e+00 7.9173808072159035e+00 -1 0 -2
4089 1363 3 4.0999999999999998e-01 7.3605399464606274e+00 2.7584538044549181e+00 3.2029624065780520e+00 -2 1 2
6797 2266 4 -8.1999999999999995e-01 6.9171284924979037e-01 7.5295999757036194e+00 3.7053658544043738e-01 0 -4 1
7321 2441 3 4.0999999999999998e-01 4.2508707151875136e+00 6.6527923172276928e+00 9.4198019424984984e+00 2 -1 3
1490 497 4 -8.1999999999999995e-01 6.5366793423111815e+00 9.1087169424272094e+00 7.1253363837196826e-01 -2 3 4
5576 1859 4 -8.1999999999999995e-01 9.5139382082357873e+00 7.3645864957613236e+00 9.9104976355466619e+00 1 0 8
7245 2415 3 4.0999999999999998e-01 7.7709651887399733e+00 7.7677147820641474e+00 4.7209058333041604e-01 2 0 -3
4662 1554 3 4.0999999999999998e-01 4.1443373238334988e+00 9.3654097206348688e+00 9.1477168009997527e+00 3 7 5
4422 1474 3 4.0999999999999998e-01 6.9656310922994216e+00 8.8763246496558890e-01 4.5490046873401377e+00 -1 2 3
7244 2415 4 -8.1999999999999995e-01 8.3951499989262022e+00 7.0195391080119300e+00 1.7539516920889139e-01 2 0 -3
5528 1843 4 -8.1999999999999995e-01 6.7962744393180747e+00 3.8248076246150164e+00 2.1145764158931254e-01 0 -1 4
618 206 3 4.0999999999999998e-01 8.4658428561706032e+00 6.1621903246037224e+00 1.0546214043210711e+01 4 -3 -3
3908 1303 4 -8.1999999999999995e-01 5.6963218338729007e+00 1.0337233071739266e+01 1.3453445193130229e+01 1 5 -1
4073 1358 4 -8.1999999999999995e-01 3.4990180182061454e+00 8.8645401348429047e+00 1.2158264931161632e+01 1 -1 1
2448 816 3 4.0999999999999998e-01 7.1563234107932630e+00 6.7594200968641500e+00 1.2406652171537392e+01 -1 0 3
5445 1815 3 4.0999999999999998e-01 9.7957781890773035e+00 5.5372826312398784e+00 1.4273767566014486e+01 4 0 -1
4592 1531 4 -8.1999999999999995e-01 3.9256498386735266e+00 2.2049707765844833e+00 1.4892418491013972e+01 5 -2 0
5363 1788 4 -8.1999999999999995e-01 4.6373170896757170e+00 7.4408887978941518e+00 1.4965646252310908e+01 1 -2 0
4548 1516 3 4.0999999999999998e-01 7.5219833455326777e+00 3.3202765954154443e+00 1.2880186129594897e+01 2 1 -1
1968 656 3 4.0999999999999998e-01 8.4529561024436006e+00 7.1128462448414194e+00 1.5268528597109750e+01 4 -3 3
4074 1358 3 4.0999999999999998e-01 3.3185162421981715e+00 7.9662334467228391e+00 1.2656038597786567e+01 1 -1 1
2427 809 3 4.0999999999999998e-01 7.8053320869931042e+00 2.2215266879986446e+00 1.7160224479322594e+01 -1 3 -1
2723 908 4 -8.1999999999999995e-01 1.4007545666054213e+00 2.2803409445585205e+00 1.8306178577920456e+01 -4 1 1
5364 1788 3 4.0999999999999998e-01 5.4458242343499235e+00 7.4152295253782450e+00 1.4351075346461096e+01 1 -2 0
703 235 3 4.0999999999999998e-01 9.3435123196699799e+00 1.4004943220148480e+00 1.3525854481583261e+01 3 3 1
1446 482 3 4.0999999999999998e-01 4.6855488398132934e+00 4.4221319665675649e+00 1.2161982163192848e+01 -2 6 0
6580 2194 3 4.0999999999999998e-01 9.0011202845310336e+00 4.8267315378071443e+00 2.0017250789101137e+01 -4 -2 3
4072 1358 3 4.0999999999999998e-01 2.6362712889184268e+00 9.3273578834659450e+00 1.2417403071489677e+01 1 -1 1
1307 436 4 -8.1999999999999995e-01 1.2979686969984627e+00 1.8011551358345557e-01 1.3198105492199600e+01 1 3 0
7277 2426 4 -8.1999999999999995e-01 2.5215862349405982e+00 6.6443786754896275e+00 1.3219374391937276e+01 -4 4 1
5243 1748 4 -8.1999999999999995e-01 9.7326922228901864e+00 9.6929607978043322e+00 1.1895693859159955e+01 -1 -1 3
5870 1957 4 -8.1999999999999995e-01 8.6967572082384947e+00 1.9287665567329377e+00 1.8809741595264871e+01 0 -3 -2
6314 2105 4 -8.1999999999999995e-01 4.6205289746940652e+00 2.8481863223221087e+00 1.1323451157173485e+01 0 0 -4
704 235 4 -8.1999999999999995e-01 9.6450453783790184e+00 4.7053761721987114e-01 1.3183684992472818e+01 3 3 1
5951 1984 4 -8.1999999999999995e-01 4.9292309222170569e+00 2.9583907760689061e+00 1.7131031864276597e+01 1 -4 2
5244 1748 3 4.0999999999999998e-01 9.6274407026014277e+00 8.9628459099010254e+00 1.1180881558090595e+01 -1 -1 3
6645 2215 3 4.0999999999999998e-01 7.3474770840032013e+00 7.7910075737508730e+00 1.6968590368534635e+01 1 -1 0
7234 2412 3 4.0999999999999998e-01 6.9195205108626101e-01 8.8232752575252693e+00 1.0713478745650509e+01 2 0 2
2724 908 3 4.0999999999999998e-01 2.2222288610527139e+00 1.6283391951621569e+00 1.8320202115406090e+01 -4 1 1
1096 366 3 4.0999999999999998e-01 9.8085394518050375e+00 5.7623886501751889e+00 1.8070821163966635e+01 -4 -6 0
5950 1984 3 4.0999999999999998e-01 4.3943214578746650e+00 3.7568637610074997e+00 1.7430450919661666e+01 1 -4 2
4591 1531 3 4.0999999999999998e-01 3.3416366227221763e+00 2.5391006417591866e+00 1.4120970789785702e+01 5 -2 0
1498 500 3 4.0999999999999998e-01 4.0695724259809900e+00 1.0892636982107899e+00 1.7982868244908012e+01 0 2 3
1034 345 4 -8.1999999999999995e-01 2.2429498625171038e+00 2.5194282590391519e+00 1.2605995876805453e+01 1 -2 -2
4404 1468 3 4.0999999999999998e-01 3.4894827728551001e+00 5.9248813227659500e+00 1.8143181906643122e+01 0 3 -5
557 186 4 -8.1999999999999995e-01 6.4923526279054542e+00 3.3594925165422090e-01 1.4870461655293015e+01 3 -1 -3
558 186 3 4.0999999999999998e-01 6.8590982855232268e+00 1.1911054087968536e+00 1.5308939198826529e+01 3 -1 -3
1035 345 3 4.0999999999999998e-01 1.8627396034600869e+00 1.6277339232518930e+00 1.2891053687302289e+01 1 -2 -2
2038 680 3 4.0999999999999998e-01 9.4725226354981320e+00 7.8195009536584807e+00 1.8604917588120891e+01 -2 -1 -1
3962 1321 4 -8.1999999999999995e-01 4.7111245015566352e+00 6.6747551293398484e+00 1.7745379863690484e+01 0 1 1
1445 482 4 -8.1999999999999995e-01 4.6372292564486397e+00 5.1738062857864184e+00 1.2802173391545782e+01 -2 6 0
1967 656 4 -8.1999999999999995e-01 7.8730927805624509e+00 6.5939481505332083e+00 1.5920389526113206e+01 4 -3 3
1716 572 3 4.0999999999999998e-01 5.8394580802652838e+00 9.4153570067252463e+00 1.7097410165204437e+01 -2 -2 2
2722 908 3 4.0999999999999998e-01 1.6939918290177565e+00 3.1248583824432421e+00 1.8736377279539557e+01 -4 1 1
772 258 3 4.0999999999999998e-01 3.1380500606921982e+00 3.8347939726597033e+00 1.9843130041547390e+01 -2 -1 0
6582 2194 3 4.0999999999999998e-01 8.7209672115334129e+00 3.6399350733095575e+00 1.8923257384510091e+01 -4 -2 3
3206 1069 4 -8.1999999999999995e-01 1.5985012497300859e+00 7.2410195593944149e+00 2.0548336306615347e+01 1 4 -1
5443 1815 3 4.0999999999999998e-01 8.5356991486935101e+00 4.6848160502430716e+00 1.4399219273546340e+01 4 0 -1
5362 1788 3 4.0999999999999998e-01 3.8611763994458332e+00 7.0629625578922912e+00 1.4490847837850726e+01 1 -2 0
3387 1129 3 4.0999999999999998e-01 9.5035041041949917e+00 8.2445103954044434e+00 1.4187528727239394e+01 3 0 -3
4780 1594 3 4.0999999999999998e-01 6.7128245028790392e+00 1.4307590374601213e+00 1.2005443036840491e+01 -1 2 3
6007 2003 3 4.0999999999999998e-01 1.4170800754090707e+00 5.5995488639304556e+00 1.6979715552309386e+01 1 -1 0
6653 2218 4 -8.1999999999999995e-01 9.6015496602250394e+00 9.6726311221694008e+00 1.4746781084528896e+01 3 3 0
4547 1516 4 -8.1999999999999995e-01 7.8505421448088475e+00 2.5714250168829440e+00 1.2247534912085071e+01 2 1 -1
7214 2405 4 -8.1999999999999995e-01 1.3326074481975083e+00 9.9657008024268503e+00 2.0753560863855007e+01 3 -5 2
3811 1271 3 4.0999999999999998e-01 6.8197017906312238e+00 3.7484979097770910e+00 1.5058845924465727e+01 2 -1 4
5242 1748 3 4.0999999999999998e-01 9.7110082221211016e+00 9.3622548632378386e+00 1.2904904086979631e+01 -1 -1 3
2039 680 4 -8.1999999999999995e-01 9.2063855651056148e+00 8.5342380940394573e+00 1.9281011533546831e+01 -2 -1 -1
4660 1554 3 4.0999999999999998e-01 4.1507339723596557e+00 8.6095308801205750e+00 1.0660293210412583e+01 3 7 5
4402 1468 3 4.0999999999999998e-01 2.4877937898922307e+00 5.7596036146277001e+00 1.9587766646890262e+01 0 3 -5
3954 1318 3 4.0999999999999998e-01 4.0053781907277969e-01 1.2642354864613550e+00 1.8584556157715927e+01 2 1 -1
1715 572 4 -8.1999999999999995e-01 5.0185443287794573e+00 9.7945136967745583e+00 1.6570615366694007e+01 -2 -2 2
3963 1321 3 4.0999999999999998e-01 4.4906680830078836e+00 6.9277886154400807e+00 1.6772728183135033e+01 0 1 1
4403 1468 4 -8.1999999999999995e-01 2.7808619231535459e+00 5.2646359136643612e+00 1.8736716792721722e+01 0 3 -5
4727 1576 4 -8.1999999999999995e-01 1.0271217532113395e+00 1.0293112785764103e+01 1.2685940486025114e+01 -2 1 -1
6644 2215 4 -8.1999999999999995e-01 7.0704189104892210e+00 8.3616815043422310e+00 1.7711588476152958e+01 1 -1 0
2446 816 3 4.0999999999999998e-01 6.9846879483564450e+00 8.3712846871575231e+00 1.2729567747443312e+01 -1 0 3
5753 1918 4 -8.1999999999999995e-01 4.9237206448571254e+00 8.7999764009305679e+00 1.9861119320398842e+01 3 1 1
3813 1271 3 4.0999999999999998e-01 5.7602265784212614e+00 4.6897561048734735e+00 1.4200987737648797e+01 2 -1 4
4781 1594 4 -8.1999999999999995e-01 5.9857505822544734e+00 6.9527650248960415e-01 1.1853800256472491e+01 -1 2 3
6643 2215 3 4.0999999999999998e-01 7.6877404889850904e+00 8.3660535683327897e+00 1.8563362491343025e+01 1 -1 0
6315 2105 3 4.0999999999999998e-01 5.1323040003994373e+00 1.9049477468126601e+00 1.1234633165383793e+01 0 0 -4
1564 522 3 4.0999999999999998e-01 8.1896023866189094e-01 2.1091156378005720e+00 1.6330860268134792e+01 3 -2 0
2426 809 4 -8.1999999999999995e-01 7.2346933370728639e+00 2.4961780588381335e+00 1.6376850568229287e+01 -1 3 -1
1098 366 3 4.0999999999999998e-01 9.1292832349649569e+00 6.6221376644056029e+00 1.6879017225087708e+01 -4 -6 0
556 186 3 4.0999999999999998e-01 5.7812569851367233e+00 5.4296632596665906e-01 1.4130002554942354e+01 3 -1 -3
907 303 3 4.0999999999999998e-01 5.2343835604322422e+00 7.2620297419035218e+00 2.0452321118078498e+01 -1 1 -3
3207 1069 3 4.0999999999999998e-01 1.5441518777220602e+00 8.2323436463433151e+00 2.0793093719193571e+01 1 4 -1
2040 680 3 4.0999999999999998e-01 9.6751077100925400e+00 9.5007299104286158e+00 1.9081001542156624e+01 -2 -1 -1
2447 816 4 -8.1999999999999995e-01 6.5182451637618417e+00 7.4283815585586250e+00 1.2846246130734208e+01 -1 0 3
1966 656 3 4.0999999999999998e-01 7.4383350605487895e+00 5.8793178694929997e+00 1.5372503713937073e+01 4 -3 3
5869 1957 3 4.0999999999999998e-01 8.0995916427995098e+00 1.7491800171902108e+00 1.9710284407019778e+01 0 -3 -2
1444 482 3 4.0999999999999998e-01 4.9828011404415529e+00 6.0502572772489289e+00 1.2356484261107562e+01 -2 6 0
3961 1321 3 4.0999999999999998e-01 5.4383589724719634e+00 7.2989539454916876e+00 1.8033252816707499e+01 0 1 1
3812 1271 4 -8.1999999999999995e-01 6.6868444044690998e+00 4.5829886480537958e+00 1.4504849757441285e+01 2 -1 4
5952 1984 3 4.0999999999999998e-01 4.5416535163291067e+00 2.6624746735686857e+00 1.6221583295914922e+01 1 -4 2
3907 1303 3 4.0999999999999998e-01 5.2461518955807733e+00 9.6518083225141282e+00 1.2813904382517601e+01 1 5 -1
6313 2105 3 4.0999999999999998e-01 3.7812386055781562e+00 2.7125502509781447e+00 1.1908973128285020e+01 0 0 -4
2425 809 3 4.0999999999999998e-01 6.2458137715061728e+00 2.6117599737737129e+00 1.6744540597969333e+01 -1 3 -1
3386 1129 4 -8.1999999999999995e-01 9.7470445879967471e+00 7.2292654350993084e+00 1.3936313395298674e+01 3 0 -3
1097 366 4 -8.1999999999999995e-01 9.9883650711862710e+00 6.6262774768698627e+00 1.7551759863308991e+01 -4 -6 0
1306 436 3 4.0999999999999998e-01 7.0231951955786898e-01 4.8853247942909389e-01 1.3931873666020515e+01 1 3 0
5444 1815 4 -8.1999999999999995e-01 9.5289491023668127e+00 4.5760615757544496e+00 1.4185249459881142e+01 4 0 -1
5754 1918 3 4.0999999999999998e-01 4.1414613119494064e+00 9.0495421006587851e+00 1.9233814766282570e+01 3 1 1
5871 1957 3 4.0999999999999998e-01 9.3783931436366039e+00 1.1821362605755830e+00 1.8710241624651953e+01 0 -3 -2
6581 2194 4 -8.1999999999999995e-01 8.9305341217926095e+00 4.6418381249050844e+00 1.9038954161368501e+01 -4 -2 3
773 258 4 -8.1999999999999995e-01 2.8272238631682800e+00 3.2037969180302910e+00 2.0555369804856124e+01 -2 -1 0
4593 1531 3 4.0999999999999998e-01 4.0447025747867347e+00 1.2039863228725340e+00 1.4765995068114679e+01 5 -2 0
7276 2426 3 4.0999999999999998e-01 1.5165231260037706e+00 6.4195316092241459e+00 1.3151391283118084e+01 -4 4 1
7278 2426 3 4.0999999999999998e-01 3.1579296329491187e+00 5.8862244978569978e+00 1.2813538415956410e+01 -4 4 1
774 258 3 4.0999999999999998e-01 3.7016893961688782e+00 2.8044923355521707e+00 2.0866228919400026e+01 -2 -1 0
1499 500 4 -8.1999999999999995e-01 3.4161158626879669e+00 4.9408461973264123e-01 1.8513580804608985e+01 0 2 3
3205 1069 3 4.0999999999999998e-01 8.3193466005775574e-01 7.0736460731171533e+00 1.9869563785706376e+01 1 4 -1
1033 345 3 4.0999999999999998e-01 1.4048090077333792e+00 2.7901075243442532e+00 1.2007064856865647e+01 1 -2 -2
4546 1516 3 4.0999999999999998e-01 8.7851869919148946e+00 2.7917788731720363e+00 1.1816906068257989e+01 2 1 -1
1714 572 3 4.0999999999999998e-01 4.8197097718544564e+00 9.1243906617570598e+00 1.5870223207339864e+01 -2 -2 2
6652 2218 3 4.0999999999999998e-01 1.0305031647323091e+01 9.7521340782050139e+00 1.5482808194325164e+01 3 3 0
909 303 3 4.0999999999999998e-01 5.5202123792843834e+00 5.5501283276105280e+00 2.0540049039910055e+01 -1 1 -3
6108 2036 3 4.0999999999999998e-01 8.5261300766292241e+00 8.2509978522973721e+00 2.0891155693319888e+01 -2 2 0
6008 2003 4 -8.1999999999999995e-01 9.2427307702517436e-01 6.3783555236643030e+00 1.6604120621596262e+01 1 -1 0
616 206 3 4.0999999999999998e-01 8.6413858456427395e+00 4.8018046710784548e+00 1.1352495071873282e+01 4 -3 -3
705 235 3 4.0999999999999998e-01 9.9202173492871903e+00 5.0894981745405699e-01 1.2211466292917057e+01 3 3 1
617 206 4 -8.1999999999999995e-01 7.9507238797490967e+00 5.5778408500527332e+00 1.1263565521341773e+01 4 -3 -3
6937 2313 3 4.0999999999999998e-01 1.0247014355183312e+01 3.3110163872636864e+00 1.5240489911126465e+01 -2 1 2
3473 1158 4 -8.1999999999999995e-01 9.9242345107684731e+00 3.5449785713733601e+00 1.0863176433144902e+01 -2 1 -1
6009 2003 3 4.0999999999999998e-01 3.0860486001177201e-01 6.0244246093921685e+00 1.5824904766160154e+01 1 -1 0
7215 2405 3 4.0999999999999998e-01 1.3724634642909408e+00 1.0509685454088757e+01 1.9859191491085859e+01 3 -5 2
5752 1918 3 4.0999999999999998e-01 5.3090643832975486e+00 9.6279561331477304e+00 2.0337364798493034e+01 3 1 1
3312 1104 3 4.0999999999999998e-01 5.6288058082732662e-01 4.4173390318666339e+00 1.2580318128129836e+01 -1 -2 3
6654 2218 3 4.0999999999999998e-01 8.7559927590228295e+00 1.0245967629884818e+01 1.4986610913461242e+01 3 3 0
4576 1526 3 4.0999999999999998e-01 4.1437374895223611e-01 5.8068531582444880e+00 2.0889916432173553e+01 1 1 -2
414 138 3 4.0999999999999998e-01 6.4495077566769590e+00 8.6543238608737350e-01 3.1322480335680041e+01 2 1 -2
7216 2406 3 4.0999999999999998e-01 2.0194632279812179e+00 1.9856346418630941e+00 2.1501871260784604e+01 0 1 -1
7115 2372 4 -8.1999999999999995e-01 4.2308633772477542e+00 3.1854803021116505e+00 2.8502144159974630e+01 -3 -1 0
564 188 3 4.0999999999999998e-01 6.4841208823568888e+00 6.6354834841141148e+00 2.8606470959679786e+01 -2 -2 -1
2143 715 3 4.0999999999999998e-01 1.7737795322199663e+00 6.0627015365562800e+00 2.7833268898700926e+01 3 3 -6
2125 709 3 4.0999999999999998e-01 4.9704215668163023e+00 7.5597867904665019e+00 3.0442066494821152e+01 2 -3 1
7114 2372 3 4.0999999999999998e-01 3.9849727928328504e+00 2.9615005165665074e+00 2.9494590153562672e+01 -3 -1 0
5710 1904 3 4.0999999999999998e-01 1.9771045290842049e+00 3.7652703703543975e+00 3.0701292157736244e+01 -1 -2 -3
2903 968 4 -8.1999999999999995e-01 6.7770085916121579e+00 1.0386361025421584e+01 2.2977137857160326e+01 4 4 1
5067 1689 3 4.0999999999999998e-01 8.1733414202191277e+00 9.2291669621337764e+00 2.5910616634832408e+01 1 2 1
1414 472 3 4.0999999999999998e-01 2.4420547617115518e+00 6.1035468943710969e+00 2.1719506922410066e+01 2 0 1
2840 947 4 -8.1999999999999995e-01 1.6694518106166362e-01 1.3960544892321274e+00 2.5102702440891246e+01 2 -3 -3
7218 2406 3 4.0999999999999998e-01 2.4911526974406502e+00 1.8192288522061382e+00 2.2949294744066854e+01 0 1 -1
4601 1534 4 -8.1999999999999995e-01 4.8248378094409965e+00 1.0107526526736004e+01 2.6277696211467688e+01 -4 -1 2
3334 1112 3 4.0999999999999998e-01 2.7423617135905185e+00 7.7218394132464532e+00 3.0607454862250126e+01 1 0 -3
2826 942 3 4.0999999999999998e-01 6.8861155401995111e+00 9.5831942414843603e+00 2.8633896328527719e+01 0 4 -3
3635 1212 4 -8.1999999999999995e-01 7.6398735237766520e+00 1.6913427990508976e+00 3.0314070495811634e+01 -1 -3 2
2904 968 3 4.0999999999999998e-01 7.1614518125888660e+00 1.0186594574583870e+01 2.3921314566904570e+01 4 4 1
1336 446 3 4.0999999999999998e-01 2.0580859020087305e+00 3.0167603632880278e+00 2.5983836311364005e+01 1 0 0
1170 390 3 4.0999999999999998e-01 1.1034081451570612e+00 9.7520695891690181e+00 2.8282000762187810e+01 -1 2 1
7070 2357 4 -8.1999999999999995e-01 7.7381490851589296e-01 9.0185715874561474e+00 2.3440218147417049e+01 -3 1 3
1220 407 4 -8.1999999999999995e-01 7.7104535297857524e+00 4.6920647389458608e-01 2.7745495685482073e+01 3 3 0
5065 1689 3 4.0999999999999998e-01 6.5027582493980312e+00 9.4725604959967278e+00 2.5926792851577755e+01 1 2 1
3769 1257 3 4.0999999999999998e-01 9.5173394524239949e+00 7.6178874499404170e+00 2.2857974949047648e+01 5 0 -1
1415 472 4 -8.1999999999999995e-01 2.8982253652139831e+00 5.9383768814242321e+00 2.2605318638494897e+01 2 0 1
5680 1894 3 4.0999999999999998e-01 1.1032645437233162e+00 7.7302184942423917e+00 2.8134406159429442e+01 0 -3 -1
1600 534 3 4.0999999999999998e-01 7.6966533023525630e+00 1.0182900778449941e+00 2.1674263518332854e+01 2 0 0
6775 2259 3 4.0999999999999998e-01 5.2353161180810508e+00 2.7010122217548007e+00 2.7308525134517076e+01 3 2 -1
5711 1904 4 -8.1999999999999995e-01 2.8709713124179590e+00 3.3635269670641974e+00 3.0821304463069225e+01 -1 -2 -3
1920 640 3 4.0999999999999998e-01 1.0366027114832713e+01 9.5015786559523061e+00 2.5757893645657042e+01 1 2 -7
3276 1092 3 4.0999999999999998e-01 6.9800699316798953e+00 5.6580656103902331e+00 2.6361475861179247e+01 2 3 0
2457 819 3 4.0999999999999998e-01 4.7612411090433575e+00 1.1178757560084898e+00 2.2200375884904609e+01 -1 1 4
6649 2217 3 4.0999999999999998e-01 9.5967696735504795e+00 7.5478229238700596e+00 2.9045269708346659e+01 0 -3 0
1169 390 4 -8.1999999999999995e-01 1.7477237446823675e+00 1.0434419808034361e+01 2.7897339833943146e+01 -1 2 1
186 62 3 4.0999999999999998e-01 4.6428154481520796e+00 8.3451617239631259e-01 2.5889163610728840e+01 0 1 4
1753 585 3 4.0999999999999998e-01 5.8657245485837066e+00 2.5368991634118658e+00 2.5014517740819549e+01 2 2 -1
2144 715 4 -8.1999999999999995e-01 2.4353602515819888e+00 6.8863889508479890e+00 2.7862024951381027e+01 3 3 -6
4600 1534 3 4.0999999999999998e-01 4.9062978089173832e+00 1.0125533924796702e+01 2.7369561544141892e+01 -4 -1 2
2725 909 3 4.0999999999999998e-01 1.1463336043938448e+00 5.3292563935312509e-01 2.6037393501403624e+01 1 -2 -3