LAMMPS data file via write_data, version 5 Jun 2019, timestep = 12500000

7349 atoms
5 atom types
4899 bonds
2 bond types
2451 angles
2 angle types
1 impropers
1 improper types

1.5519297081455363e-01 4.1845807029189409e+01 xlo xhi
1.5469297081455124e-01 4.1845307029189406e+01 ylo yhi
1.5469297081455124e-01 4.1845307029189406e+01 zlo zhi

#Masses
#
#1 12.01
#2 40.08
#3 1.01
#4 16
#5 16
#
#Bond Coeffs # harmonic
#
#1 20.4246 1.3042
#2 22.965 1.012

Atoms # full

823 275 3 4.0999999999999998e-01 1.0350736900909746e+01 7.9117108166498467e+00 9.5327567658131613e+00 0 -1 -3
5201 1734 4 -8.1999999999999995e-01 2.4438975172467416e+00 2.4929438817526256e-01 6.3537833435655378e+00 0 4 0
5202 1734 3 4.0999999999999998e-01 3.2901399259026349e+00 4.2284428524908857e-01 6.9686686995370524e+00 0 4 0
3750 1250 3 4.0999999999999998e-01 6.2652349249879506e+00 4.9401633013906547e+00 1.4286327427575376e+00 -2 1 5
2089 697 3 4.0999999999999998e-01 6.4380389772399083e+00 8.6398352312587541e+00 9.5505295958388796e+00 -2 1 2
2090 697 4 -8.1999999999999995e-01 7.3037802747650264e+00 8.9242554669586180e+00 1.0033224444625450e+01 -2 1 2
4142 1381 4 -8.1999999999999995e-01 3.5031921752119470e+00 9.1492932968226470e-01 3.8048862310211993e+00 3 1 -4
6879 2293 3 4.0999999999999998e-01 7.1758767947616411e+00 4.9323413016472371e+00 5.3250643553542218e+00 2 0 -5
6878 2293 4 -8.1999999999999995e-01 6.5836058884394975e+00 4.4178186802661843e+00 5.9941754682148805e+00 2 0 -5
998 333 4 -8.1999999999999995e-01 8.3991097227252247e+00 9.7567032776887519e-01 1.5273190854721281e+00 -1 1 -1
1493 498 4 -8.1999999999999995e-01 1.0483053855033498e+01 2.3085420661564200e+00 9.8246665604568690e+00 -2 2 -1
4604 1535 4 -8.1999999999999995e-01 8.5806721637496892e+00 1.0220688088588927e+01 7.4185686487349631e+00 0 -1 3
6100 2034 3 4.0999999999999998e-01 1.3261090459359512e+00 7.5995412571860257e+00 2.3846151736264263e+00 1 4 1
6790 2264 3 4.0999999999999998e-01 1.2189998628591996e+00 6.0909977050576778e+00 9.8045229788864372e+00 1 -1 3
3058 1020 3 4.0999999999999998e-01 8.6516635802642377e+00 7.1491651080875016e+00 5.4716126139399952e+00 1 1 -1
3060 1020 3 4.0999999999999998e-01 9.9988323607221190e+00 7.8479889449158078e+00 5.9261535661206075e+00 1 1 -1
553 185 3 4.0999999999999998e-01 3.2785507150250068e+00 1.4709485954290573e+00 2.2080391138739954e+00 -1 0 1
3749 1250 4 -8.1999999999999995e-01 6.2664362077957643e+00 5.9058099274337481e+00 1.8228310544249025e+00 -2 1 5
3187 1063 3 4.0999999999999998e-01 6.0657274971625883e+00 1.0377165633451801e+01 2.2659156924483090e+00 -2 0 1
997 333 3 4.0999999999999998e-01 9.2984683936553889e+00 1.1411958576340679e+00 1.9608124188295442e+00 -1 1 -1
3693 1231 3 4.0999999999999998e-01 3.6931704416840549e+00 9.1546658432267289e+00 2.1011361705611015e-01 -1 0 -4
5791 1931 3 4.0999999999999998e-01 5.5393652456012985e+00 1.1036444333071733e+00 5.6709045080242753e+00 -2 -2 2
2554 852 3 4.0999999999999998e-01 8.1280418131268579e+00 2.4789555081258641e+00 9.7878003250306278e-01 3 -1 1
3198 1066 3 4.0999999999999998e-01 7.2616266701858323e-01 4.5350227170092632e+00 2.9423933839023468e+00 -1 1 -2
6791 2264 4 -8.1999999999999995e-01 1.9070579029823733e+00 6.4792789315123045e+00 9.1047399412957439e+00 1 -1 3
2837 946 4 -8.1999999999999995e-01 1.0416571937231208e+01 5.8836304942330342e+00 2.9192549231562177e+00 3 0 -2
6279 2093 3 4.0999999999999998e-01 9.2316979380409219e+00 1.9019500787850820e+00 4.1679347663396902e+00 1 -2 0
6519 2173 3 4.0999999999999998e-01 9.7061500078980067e+00 2.3602153209306591e+00 7.1468329903801369e+00 -1 4 -1
6513 2171 3 4.0999999999999998e-01 2.2157028709609610e+00 3.0859647818047291e+00 5.6144057656473016e+00 1 1 -3
6461 2154 4 -8.1999999999999995e-01 3.7424921509893552e+00 4.0928813153061476e+00 5.9242741273219917e+00 2 3 3
3692 1231 4 -8.1999999999999995e-01 4.2064229005133287e+00 9.9797144614610840e+00 4.5872748572908101e-01 -1 0 -4
5853 1951 3 4.0999999999999998e-01 4.7114348013292231e+00 7.8183301847002431e+00 7.4835079628354970e+00 -1 0 0
6485 2162 4 -8.1999999999999995e-01 9.1715225934531670e+00 5.2051050623442796e+00 7.9335520625368305e+00 -2 -2 2
2521 841 3 4.0999999999999998e-01 2.9247539921774952e+00 8.0105522088012009e+00 4.7383128253560427e+00 1 -1 -1
3189 1063 3 4.0999999999999998e-01 7.6368682467477624e+00 1.0466751533293651e+01 2.0833308288505585e+00 -2 0 1
4952 1651 4 -8.1999999999999995e-01 3.6695979501397589e+00 6.4512384335344981e+00 1.2262648018599889e+00 -5 0 3
6512 2171 4 -8.1999999999999995e-01 1.2833125116336499e+00 2.6342630164758805e+00 5.6169669457980698e+00 1 1 -3
5793 1931 3 4.0999999999999998e-01 6.9225198068533462e+00 1.3703471803784939e+00 4.8037311863790828e+00 -2 -2 2
2838 946 3 4.0999999999999998e-01 1.0317370650157203e+01 5.5673627129500476e+00 1.9806584546964570e+00 3 0 -2
5887 1963 3 4.0999999999999998e-01 5.8451092163578409e+00 2.5057823345560448e-01 9.4501759384693695e-01 4 2 -4
591 197 3 4.0999999999999998e-01 1.1421582196514470e+00 8.4903008486839759e+00 3.9859883032285839e+00 2 -2 2
6486 2162 3 4.0999999999999998e-01 8.9087429297373326e+00 5.8984895419163390e+00 7.1763885277768358e+00 -2 -2 2
6101 2034 4 -8.1999999999999995e-01 2.1719462707808050e+00 7.8596891219104741e+00 2.9363936027997384e+00 1 4 1
4953 1651 3 4.0999999999999998e-01 3.0380778164372981e+00 5.6715479297645990e+00 1.4270796757859019e+00 -5 0 3
6379 2127 3 4.0999999999999998e-01 1.0984938486995579e+00 4.3834925674167060e+00 1.0832750784725678e+00 2 2 -1
3748 1250 3 4.0999999999999998e-01 6.9116976837013571e+00 6.4578845677018331e+00 1.2948228884008690e+00 -2 1 5
5874 1958 3 4.0999999999999998e-01 7.3483337185611441e-01 2.5919918096041714e+00 7.3082605248298389e+00 -2 1 -1
5200 1734 3 4.0999999999999998e-01 1.9064356486553184e+00 1.1401173056009772e+00 6.2805846784376511e+00 0 4 0
3446 1149 4 -8.1999999999999995e-01 7.9640768316979971e+00 7.6960322470417806e+00 8.6819730657829053e-01 3 1 -1
3996 1332 3 4.0999999999999998e-01 1.4162531713551769e+00 1.4581207792273858e+00 9.0527680495084120e+00 -2 0 3
5792 1931 4 -8.1999999999999995e-01 5.8786070798836141e+00 1.4118262403173902e+00 4.7728734010206635e+00 -2 -2 2
1073 358 4 -8.1999999999999995e-01 3.3553570018468384e+00 1.0290599094934976e+01 7.1521560546925915e+00 -1 -3 -5
6511 2171 3 4.0999999999999998e-01 8.7894017799350987e-01 3.1795005378271353e+00 4.8443520627653980e+00 1 1 -3
394 132 3 4.0999999999999998e-01 3.3927690026172588e+00 3.6802144255869260e+00 9.0543009186455983e+00 2 2 1
6462 2154 3 4.0999999999999998e-01 3.6023273042530004e+00 4.3380719700465118e+00 6.9152388832081204e+00 2 3 3
1158 386 3 4.0999999999999998e-01 7.9536743907050225e+00 4.0661563273924797e+00 1.0459751408587861e+01 -2 -2 -2
4951 1651 3 4.0999999999999998e-01 4.6565806331682964e+00 6.1886323325861694e+00 1.4874112175960654e+00 -5 0 3
824 275 4 -8.1999999999999995e-01 9.5801118011263711e+00 7.2095095500934949e+00 9.8025782171856530e+00 0 -1 -3
3994 1332 3 4.0999999999999998e-01 2.4360095502277792e+00 3.7573162366208540e-01 9.7875947057172006e+00 -2 0 3
590 197 4 -8.1999999999999995e-01 4.3703521104946064e-01 8.4191000480114457e+00 4.8012909211086985e+00 2 -2 2
1572 524 3 4.0999999999999998e-01 1.5388064972432995e+00 1.0315491485732284e+01 9.9287308692986951e+00 3 -2 2
3059 1020 4 -8.1999999999999995e-01 9.1132612953506786e+00 7.5407289046008046e+00 6.3249027486359921e+00 1 1 -1
297 99 3 4.0999999999999998e-01 1.7691627504293153e+00 8.3454322826051908e-01 8.1536376669027666e-01 0 -1 -1
3995 1332 4 -8.1999999999999995e-01 2.1964601528220684e+00 1.3368541581158655e+00 9.6919078373812226e+00 -2 0 3
5851 1951 3 4.0999999999999998e-01 4.9923760440828175e+00 6.8199604568901524e+00 8.8311905924083440e+00 -1 0 0
3771 1257 3 4.0999999999999998e-01 9.0233624077958901e+00 6.1380591692390079e+00 3.8010109136870627e+00 3 1 0
4141 1381 3 4.0999999999999998e-01 4.4118599733616897e+00 1.2494973230672224e+00 4.1706454985391117e+00 3 1 -4
6460 2154 3 4.0999999999999998e-01 4.6907862458266836e+00 3.7043062528648765e+00 5.8518560948170775e+00 2 3 3
638 213 4 -8.1999999999999995e-01 4.9774223249218537e+00 5.7831950874584903e-01 7.2983417300018596e+00 0 -1 2
3184 1062 3 4.0999999999999998e-01 5.4885880794909492e-01 9.5880892342334469e+00 6.2297018609366699e+00 -1 2 1
2523 841 3 4.0999999999999998e-01 3.9582079703561446e+00 6.9211715023895826e+00 5.4531273826733724e+00 1 -1 -1
3769 1257 3 4.0999999999999998e-01 7.4528280514406084e+00 6.2082866980347040e+00 3.6184318564675735e+00 3 1 0
3770 1257 4 -8.1999999999999995e-01 8.1792142175546374e+00 6.0740034427604730e+00 4.3461302892028444e+00 3 1 0
6277 2093 3 4.0999999999999998e-01 8.3726102269137641e+00 2.8157099472779801e+00 5.1399226637132172e+00 1 -2 0
1469 490 4 -8.1999999999999995e-01 6.0398906764355740e+00 1.5851625648804990e+00 1.0120298581537988e+01 2 0 0
5873 1958 4 -8.1999999999999995e-01 2.9007225792641550e-01 1.9842966626238185e+00 8.0817413854902611e+00 -2 1 -1
555 185 3 4.0999999999999998e-01 3.7859004739796611e+00 1.3303567132755458e+00 6.7272811456893666e-01 -1 0 1
1468 490 3 4.0999999999999998e-01 6.5477163172197699e+00 2.4577210240169975e+00 9.9650145780618438e+00 2 0 0
539 180 4 -8.1999999999999995e-01 1.0291626730588561e+01 4.6531272615445909e+00 5.0329446694594593e-01 -1 0 3
1470 490 3 4.0999999999999998e-01 5.0087905053606994e+00 1.8444446369912131e+00 1.0251464404757893e+01 2 0 0
6278 2093 4 -8.1999999999999995e-01 8.5605421744910029e+00 1.8413550397930789e+00 4.9601962439371912e+00 1 -2 0
4129 1377 3 4.0999999999999998e-01 3.7805898646845266e+00 9.9732780192138417e+00 3.4153163376678477e+00 0 -1 4
2522 841 4 -8.1999999999999995e-01 3.3794266472369174e+00 7.7726151022629812e+00 5.6280184577546031e+00 1 -1 -1
3188 1063 4 -8.1999999999999995e-01 6.8653043370867923e+00 9.8675181957786915e+00 1.8603568996441959e+00 -2 0 1
5852 1951 4 -8.1999999999999995e-01 5.2841665601701422e+00 7.6719378488267518e+00 8.2949679550750677e+00 -1 0 0
6380 2127 4 -8.1999999999999995e-01 1.9865583087486445e+00 4.3292128434632851e+00 1.5472235249147965e+00 2 2 -1
3445 1149 3 4.0999999999999998e-01 7.4071019760395549e+00 8.5345101672401231e+00 1.0886696168163292e+00 3 1 -1
6102 2034 3 4.0999999999999998e-01 3.0024554625728546e+00 7.3933404707091359e+00 2.5623358036596815e+00 1 4 1
6877 2293 3 4.0999999999999998e-01 6.4826724421684707e+00 4.8333208220275985e+00 6.8987910382951965e+00 2 0 -5
554 185 4 -8.1999999999999995e-01 3.0895223266970948e+00 1.7624611259332259e+00 1.2607637192088668e+00 -1 0 1
6792 2264 3 4.0999999999999998e-01 1.3615290129036135e+00 7.1124900622381757e+00 8.5015602067222122e+00 1 -1 3
4603 1535 3 4.0999999999999998e-01 8.4212326030276881e+00 9.2056236461075507e+00 7.2842431618829560e+00 0 -1 3
6381 2127 3 4.0999999999999998e-01 2.5938072236661829e+00 3.5615697372234942e+00 1.1736143812879771e+00 2 2 -1
2556 852 3 4.0999999999999998e-01 8.8234545102284407e+00 3.9259586164148690e+00 6.3056836666557525e-01 3 -1 1
6484 2162 3 4.0999999999999998e-01 9.3841034367614515e+00 5.8276263496802843e+00 8.7796908982679458e+00 -2 -2 2
211 71 3 4.0999999999999998e-01 2.9858620342636981e+00 7.0882747017307040e+00 1.0255944781015659e+01 0 1 1
2555 852 4 -8.1999999999999995e-01 7.9006180070805758e+00 3.4498028140230499e+00 6.6081354841391848e-01 3 -1 1
396 132 3 4.0999999999999998e-01 2.9888665386941877e+00 5.3283581871405064e+00 8.7371006289755417e+00 2 2 1
3185 1062 4 -8.1999999999999995e-01 4.3249146223734253e-01 1.0238931135054216e+01 7.0100349834444646e+00 -1 2 1
1157 386 4 -8.1999999999999995e-01 7.2665651639520341e+00 4.1041625690555810e+00 9.6749823983982495e+00 -2 -2 -2
395 132 4 -8.1999999999999995e-01 3.5714559799485786e+00 4.4801574368680894e+00 8.4516000585508344e+00 2 2 1
1156 386 3 4.0999999999999998e-01 7.8378007561162493e+00 4.3698570847673466e+00 8.8286442119403414e+00 -2 -2 -2
4143 1381 3 4.0999999999999998e-01 2.9242293975643263e+00 5.0910958953829388e-01 4.5152987022280415e+00 3 1 -4
3759 1253 3 4.0999999999999998e-01 1.0641971177622962e+00 5.4433200496698164e-01 3.4422042916399094e+00 0 0 -3
4477 1493 3 4.0999999999999998e-01 5.7512446821965346e+00 4.3539110498132354e+00 1.0392755329682242e+01 2 3 3
2091 697 3 4.0999999999999998e-01 7.9376897593408309e+00 8.1787561463392375e+00 9.9059451276970858e+00 -2 1 2
637 213 3 4.0999999999999998e-01 5.2023808749145015e+00 9.9192420943682547e-01 8.2049059271750213e+00 0 -1 2
1074 358 3 4.0999999999999998e-01 3.3936520656430877e+00 9.6766838723435402e+00 7.8674036838219923e+00 -1 -3 -5
3447 1149 3 4.0999999999999998e-01 8.8539619415538997e+00 8.0298347534944856e+00 4.1857104055717775e-01 3 1 -1
3691 1231 3 4.0999999999999998e-01 4.5203209644349664e+00 1.0086071422456916e+01 1.4398519565103576e+00 -1 0 -4
296 99 4 -8.1999999999999995e-01 9.9294355663769918e-01 2.4788191383538699e-01 6.1270174795313859e-01 0 -1 -1
589 197 3 4.0999999999999998e-01 2.7811068923378457e-01 7.4532804029384829e+00 5.1658244617681968e+00 2 -2 2
816 272 3 4.0999999999999998e-01 9.2715985426814136e+00 1.0555792975184897e+01 8.8100555242470797e+00 2 -1 1
7302 2434 3 4.0999999999999998e-01 1.0202271476375294e+01 1.0461419429824602e+01 2.1352543852222383e+00 1 1 -1
836 279 4 -8.1999999999999995e-01 8.5324750051225848e+00 1.3901799232964325e+00 1.7608690010484903e+01 1 2 -1
718 240 3 4.0999999999999998e-01 8.2593620233338036e+00 6.2574685102580068e+00 1.6143788517615281e+01 0 -2 -2
6311 2104 4 -8.1999999999999995e-01 4.1011681851733632e+00 5.2738277461704826e+00 1.8321930907830659e+01 0 2 1
6059 2020 4 -8.1999999999999995e-01 9.1126484474034655e+00 7.6068175740660298e+00 1.9489512832860189e+01 3 0 0
1247 416 4 -8.1999999999999995e-01 1.1822123920568346e+00 4.5271185776825948e+00 1.6736022641897584e+01 1 0 1
3486 1162 3 4.0999999999999998e-01 3.1282105355596239e+00 1.3884989830908789e+00 1.9006920036324523e+01 0 1 -1
5287 1763 3 4.0999999999999998e-01 8.9431570167597108e-01 1.1133222449560289e+00 1.1353444367871305e+01 2 4 3
1302 434 3 4.0999999999999998e-01 7.6602468438466662e+00 3.9297377197659871e+00 1.8887803904372952e+01 -1 3 0
6830 2277 4 -8.1999999999999995e-01 4.1518138301689751e+00 1.7602233535873373e+00 1.5871448481267818e+01 5 1 1
6184 2062 3 4.0999999999999998e-01 8.9949431339170207e+00 7.3235682413970835e+00 1.2712868786427906e+01 -1 1 0
213 71 3 4.0999999999999998e-01 3.3665743658195408e+00 7.6530853711473732e+00 1.1775930597516115e+01 0 1 1
4386 1462 3 4.0999999999999998e-01 6.8663216392014581e+00 7.0721819488514344e+00 1.3062672396880803e+01 1 -1 0
6687 2229 3 4.0999999999999998e-01 5.1085385896443203e-01 6.2801157951414925e+00 1.3946328256541269e+01 2 3 2
6686 2229 4 -8.1999999999999995e-01 1.0784588216042705e+00 7.0509307498721361e+00 1.4384830542949988e+01 2 3 2
6060 2020 3 4.0999999999999998e-01 1.0000054964026429e+01 7.8129203621873575e+00 1.9925495933056748e+01 3 0 0
4293 1431 3 4.0999999999999998e-01 7.8465204231000980e+00 1.0149641350815465e+01 1.1552192125173436e+01 -2 0 -2
1301 434 4 -8.1999999999999995e-01 7.6932916389167412e+00 4.9350287780492703e+00 1.8641906881526101e+01 -1 3 0
4365 1455 3 4.0999999999999998e-01 2.7124630782135943e+00 3.6820095086324658e+00 1.3136526030169708e+01 -1 1 0
1426 476 3 4.0999999999999998e-01 3.0262596843461269e+00 9.1802785306061310e+00 1.3765513912287389e+01 -3 5 2
7304 2435 4 -8.1999999999999995e-01 7.3163106184765088e+00 1.0528392590575697e+01 1.5986136098618378e+01 -1 1 -3
5053 1685 3 4.0999999999999998e-01 4.7412040904184991e+00 4.7122546425282081e+00 1.4868213455731135e+01 2 -2 -1
4093 1365 3 4.0999999999999998e-01 6.3894153874089081e+00 3.0979250608203546e+00 2.0713046325583761e+01 0 -1 -3
4095 1365 3 4.0999999999999998e-01 6.6298307043087661e+00 2.2298921334422848e+00 1.9286963730505089e+01 0 -1 -3
6831 2277 3 4.0999999999999998e-01 4.7676234025630659e+00 1.2792786678623278e+00 1.5222593872852087e+01 5 1 1
5705 1902 4 -8.1999999999999995e-01 3.5723684546268326e+00 8.8512717496043933e+00 1.8500354371449252e+01 1 -1 1
1300 434 3 4.0999999999999998e-01 7.4518516270534132e+00 5.1215055035272856e+00 1.7637274360168266e+01 -1 3 0
1570 524 3 4.0999999999999998e-01 1.6632263200362098e+00 1.0158514593637548e+01 1.1657818378467731e+01 3 -2 2
1400 467 4 -8.1999999999999995e-01 8.7362577515338415e+00 4.2809555221799203e+00 1.1852383183025806e+01 -2 2 2
5054 1685 4 -8.1999999999999995e-01 4.9205711329624959e+00 5.4664052343150260e+00 1.5535469221307601e+01 2 -2 -1
835 279 3 4.0999999999999998e-01 8.8115290030319127e+00 1.4437528720762982e+00 1.6607558084796569e+01 1 2 -1
1427 476 4 -8.1999999999999995e-01 3.1487094617587772e+00 8.3348419520232309e+00 1.3167783181609835e+01 -3 5 2
779 260 4 -8.1999999999999995e-01 5.4999526294554757e+00 9.3191887721343676e+00 1.3142917206906569e+01 5 3 1
1428 476 3 4.0999999999999998e-01 2.3256563253794891e+00 7.7485327886715067e+00 1.3338788560800745e+01 -3 5 2
212 71 4 -8.1999999999999995e-01 3.6974771718270829e+00 7.0982011773726992e+00 1.0949459098249545e+01 0 1 1
5883 1961 3 4.0999999999999998e-01 5.4362701202458092e+00 3.2330346256139975e+00 1.3796942450500001e+01 -1 -1 -1
5289 1763 3 4.0999999999999998e-01 1.0301721697508481e+00 1.3344912357873930e+00 1.3024831501487604e+01 2 4 3
3577 1193 3 4.0999999999999998e-01 1.0035703646092630e+01 4.8624131049405168e+00 1.9350620277803650e+01 -1 4 2
5378 1793 4 -8.1999999999999995e-01 5.5739049869853625e+00 3.5437395149722145e-01 1.4138721818491103e+01 1 -2 4
837 279 3 4.0999999999999998e-01 9.2360485245988446e+00 8.0132476838663069e-01 1.8068236006688856e+01 1 2 -1
6396 2132 3 4.0999999999999998e-01 1.3542970360033613e+00 3.7023774199572292e+00 1.9796563408435190e+01 -1 -2 -2
620 207 4 -8.1999999999999995e-01 1.7479733562179973e+00 7.9319846648683932e+00 2.0764325384831384e+01 -1 2 -3
6058 2020 3 4.0999999999999998e-01 8.7165698223033790e+00 6.8495971699849436e+00 1.9879330260974083e+01 3 0 0
4363 1455 3 4.0999999999999998e-01 4.1524223939389451e+00 4.0776816023348328e+00 1.2440221758781448e+01 -1 1 0
3668 1223 4 -8.1999999999999995e-01 9.0453146122840398e+00 1.0214012750402375e+00 1.2210133447112602e+01 -1 2 0
4364 1455 4 -8.1999999999999995e-01 3.6985646601841862e+00 3.8769374890431072e+00 1.3320202358064483e+01 -1 1 0
719 240 4 -8.1999999999999995e-01 7.6487073448412186e+00 5.4557591242036674e+00 1.5857480736627913e+01 0 -2 -2
5068 1690 3 4.0999999999999998e-01 6.7719955304864330e+00 1.8230838377541156e+00 1.7643658326834725e+01 0 -1 4
1813 605 3 4.0999999999999998e-01 9.7084185382088006e-01 5.6213125594148590e+00 1.7981986766474574e+01 2 4 -2
5960 1987 4 -8.1999999999999995e-01 8.7764142769871984e+00 7.9339673939984730e+00 1.6892760027073056e+01 2 1 0
5788 1930 3 4.0999999999999998e-01 2.2929526092651993e+00 6.9539411059865914e+00 1.5591459743991647e+01 0 0 5
5959 1987 3 4.0999999999999998e-01 9.6252219024805310e+00 8.4283777647737601e+00 1.6564475280183171e+01 2 1 0
5882 1961 4 -8.1999999999999995e-01 6.3771452564472568e+00 2.9070416147304607e+00 1.3523409735509324e+01 -1 -1 -1
3578 1193 4 -8.1999999999999995e-01 1.0265843346630199e+01 5.1878009093156079e+00 2.0324361523454101e+01 -1 4 2
5530 1844 3 4.0999999999999998e-01 1.0010430945258834e+01 3.0611167733809630e+00 1.8051916571059795e+01 -2 0 -1
1246 416 3 4.0999999999999998e-01 1.3214085184403508e+00 3.6876475875897743e+00 1.6202545939743626e+01 1 0 1
3651 1217 3 4.0999999999999998e-01 4.3423085058235822e-01 1.6327684162931602e+00 1.5366895018898497e+01 -2 0 4
6312 2104 3 4.0999999999999998e-01 4.7860260162885568e+00 5.0097196725599549e+00 1.7584612170647798e+01 0 2 1
4575 1525 3 4.0999999999999998e-01 9.0139070097748828e+00 1.4069938265414434e+00 1.4026182411892293e+01 -2 0 -2
4384 1462 3 4.0999999999999998e-01 7.6913424606063856e+00 6.2477779316048085e+00 1.4288577638091796e+01 1 -1 0
5377 1793 3 4.0999999999999998e-01 6.1184372667403997e+00 1.1186774003920046e+00 1.3721097055456674e+01 1 -2 4
6829 2277 3 4.0999999999999998e-01 3.2282309228853867e+00 1.9263432821118018e+00 1.5431420920799724e+01 5 1 1
4573 1525 3 4.0999999999999998e-01 7.6975573135041939e+00 2.2056713573790083e+00 1.4801451204696200e+01 -2 0 -2
720 240 3 4.0999999999999998e-01 8.2372859788391146e+00 4.7085889081651739e+00 1.5456024491870894e+01 0 -2 -2
6006 2002 3 4.0999999999999998e-01 3.5729923321564555e-01 3.9955015742339222e+00 1.3603021416326232e+01 3 2 -2
175 59 3 4.0999999999999998e-01 9.1374642432789233e-01 3.8804462911927828e-01 1.8950515101272117e+01 0 2 3
5706 1902 3 4.0999999999999998e-01 3.0820059232478321e+00 8.2057919070908447e+00 1.7873629963896828e+01 1 -1 1
4478 1493 4 -8.1999999999999995e-01 5.0496096102851000e+00 4.5724533496643307e+00 1.1046531971515222e+01 2 3 3
1401 467 3 4.0999999999999998e-01 8.3721542621105272e+00 5.1423418813116193e+00 1.2240687372759163e+01 -2 2 2
1814 605 4 -8.1999999999999995e-01 9.3831050462919496e-01 6.4970586641568726e+00 1.8556377343977505e+01 2 4 -2
619 207 3 4.0999999999999998e-01 1.2092565320189315e+00 7.4189344625452316e+00 2.0117968152460289e+01 -1 2 -3
4385 1462 4 -8.1999999999999995e-01 7.6155771322495047e+00 6.4048712134304759e+00 1.3278876965754566e+01 1 -1 0
3649 1217 3 4.0999999999999998e-01 1.3046047623675892e+00 1.4072756176597352e+00 1.6522919089266935e+01 -2 0 4
7305 2435 3 4.0999999999999998e-01 7.5088118257234404e+00 9.6599547421849881e+00 1.6561876533346503e+01 -1 1 -3
3378 1126 3 4.0999999999999998e-01 3.5282803106639204e+00 8.8929750126211449e+00 1.5828402824287631e+01 1 -1 3
5070 1690 3 4.0999999999999998e-01 5.1070035505511955e+00 1.9766421641014851e+00 1.7070208929498079e+01 0 -1 4
6185 2062 4 -8.1999999999999995e-01 9.9603528615001320e+00 7.7218701503872422e+00 1.2413197357217292e+01 -1 1 0
6004 2002 3 4.0999999999999998e-01 6.9149872882642471e-01 3.4853962899538584e+00 1.2037465085148549e+01 3 2 -2
6186 2062 3 4.0999999999999998e-01 1.0024806102583462e+01 8.7400009234712499e+00 1.2492835629423700e+01 -1 1 0
5288 1763 4 -8.1999999999999995e-01 8.9951841655525544e-01 6.3926920485558680e-01 1.2259421136842803e+01 2 4 3
3650 1217 4 -8.1999999999999995e-01 1.2948444807255526e+00 1.9657949204538827e+00 1.5701588181025377e+01 -2 0 4
5055 1685 3 4.0999999999999998e-01 5.9342244903437935e+00 5.4768031788430660e+00 1.5774890551395188e+01 2 -2 -1
780 260 3 4.0999999999999998e-01 5.6486705244967297e+00 9.3164784445704800e+00 1.4162722128859778e+01 5 3 1
3669 1223 3 4.0999999999999998e-01 9.2080859746873696e+00 4.0755873065706572e-01 1.1433327188153637e+01 -1 2 0
4492 1498 3 4.0999999999999998e-01 7.3386218570150987e+00 5.3600573054899039e+00 2.0471442953847731e+01 1 -1 -1
5069 1690 4 -8.1999999999999995e-01 5.8091076022264252e+00 2.1421514472746845e+00 1.7867646404454273e+01 0 -1 4
5790 1930 3 4.0999999999999998e-01 3.9544606867829923e+00 6.5860092039121332e+00 1.6103719682454866e+01 0 0 5
6395 2132 4 -8.1999999999999995e-01 2.3108681463201681e+00 3.4411736459804296e+00 1.9921892394487330e+01 -1 -2 -2
5789 1930 4 -8.1999999999999995e-01 3.0660058550739073e+00 7.0868531612507573e+00 1.6283623663454321e+01 0 0 5
5531 1844 4 -8.1999999999999995e-01 1.0470529854274181e+01 3.9361873393968425e+00 1.7873274426688958e+01 -2 0 -1
6005 2002 4 -8.1999999999999995e-01 1.0283626037706826e+00 3.4961291559508441e+00 1.3020443045580556e+01 3 2 -2
6394 2132 3 4.0999999999999998e-01 2.9082277226001132e+00 3.8751647948671586e+00 1.9250946420388782e+01 -1 -2 -2
4574 1525 4 -8.1999999999999995e-01 8.7081109446224190e+00 1.9231645610284418e+00 1.4891551859315214e+01 -2 0 -2
5881 1961 3 4.0999999999999998e-01 6.5421393318746466e+00 3.2443785831453051e+00 1.2598967419369895e+01 -1 -1 -1
3667 1223 3 4.0999999999999998e-01 9.1126457894535005e+00 1.9393587018811447e+00 1.1744745073395778e+01 -1 2 0
1399 467 3 4.0999999999999998e-01 9.7731887255119627e+00 4.3437211372443976e+00 1.1754093348390983e+01 -2 2 2
5961 1987 3 4.0999999999999998e-01 8.6625690263112709e+00 7.8178407367392415e+00 1.7947404388083491e+01 2 1 0
6685 2229 3 4.0999999999999998e-01 4.0696434770419182e-01 7.8735062529583564e+00 1.4569815906313652e+01 2 3 2
778 260 3 4.0999999999999998e-01 4.4856750083047237e+00 9.0330698356168870e+00 1.2957392742156017e+01 5 3 1
5704 1902 3 4.0999999999999998e-01 3.2401369581739892e+00 8.4714565844611105e+00 1.9430572772193813e+01 1 -1 1
3376 1126 3 4.0999999999999998e-01 2.6311101166170312e+00 1.0245668795491898e+01 1.5975684844039920e+01 1 -1 3
6310 2104 3 4.0999999999999998e-01 3.5819054308866667e+00 6.0291604819787379e+00 1.7923708564169011e+01 0 2 1
825 275 3 4.0999999999999998e-01 9.6934096280893218e+00 7.1222122178133329e+00 1.0788899787132422e+01 0 -1 -3
2043 681 3 4.0999999999999998e-01 8.3641715263112868e+00 9.2570882578949707e+00 1.9920922679246925e+01 -1 0 0
4094 1365 4 -8.1999999999999995e-01 7.1210903743900520e+00 2.5838955678035931e+00 2.0110410268997306e+01 0 -1 -3
3377 1126 4 -8.1999999999999995e-01 3.4915154960609085e+00 9.8792172333973092e+00 1.5565546081979660e+01 1 -1 3
6096 2032 3 4.0999999999999998e-01 1.0270362024537405e+01 3.1846272604736909e+00 1.4795949520018304e+01 1 1 5
6321 2107 3 4.0999999999999998e-01 4.8248907831694332e+00 9.6984160700646953e+00 1.8445220815259137e+01 4 1 1
2041 681 3 4.0999999999999998e-01 7.1158928713139362e+00 1.0258248156674858e+01 1.9660728030037564e+01 -1 0 0
5584 1862 3 4.0999999999999998e-01 4.6063739411556739e+00 9.7795749894233488e+00 2.0171120526869814e+01 2 0 0
1248 416 3 4.0999999999999998e-01 1.6347303932787127e+00 5.2117710778684456e+00 1.6103921168485964e+01 1 0 1
4479 1493 3 4.0999999999999998e-01 4.8174569510779914e+00 5.5543245359731168e+00 1.1117590959709778e+01 2 3 3
2042 681 4 -8.1999999999999995e-01 8.0251482703710426e+00 1.0222868570838868e+01 2.0148423129843668e+01 -1 0 0
6320 2107 4 -8.1999999999999995e-01 5.5989632967611191e+00 1.0454425434706183e+01 1.8507232486628425e+01 4 1 1
969 323 3 4.0999999999999998e-01 5.5094488917162794e+00 1.0539459649157346e+01 1.1596880195145802e+01 0 -2 1
3485 1162 4 -8.1999999999999995e-01 2.7511387837708816e+00 4.5236500005706903e-01 1.9194114357187647e+01 0 1 -1
4292 1431 4 -8.1999999999999995e-01 8.7616605421816480e+00 1.0300915070514517e+01 1.2042173504011707e+01 -2 0 -2
624 208 3 4.0999999999999998e-01 1.0494713970675386e+01 1.1130275041559305e+00 2.0457706054805961e+01 0 -1 3
1571 524 4 -8.1999999999999995e-01 1.4464218301809415e+00 9.7141689002462783e+00 1.0728869154830329e+01 3 -2 2
3579 1193 3 4.0999999999999998e-01 9.5084959870105550e+00 5.3873794829644481e+00 2.0930260814318942e+01 -1 4 2
6094 2032 3 4.0999999999999998e-01 1.0528244294534918e+01 4.2557829978964232e+00 1.6113559260024559e+01 1 1 5
6265 2089 3 4.0999999999999998e-01 2.3073055417074513e+00 7.4800359406878822e+00 2.8450081467401546e+01 1 2 1
6930 2310 3 4.0999999999999998e-01 2.7238890139976970e+00 3.7834584645907010e+00 2.1541608934152585e+01 -2 0 -2
4272 1424 3 4.0999999999999998e-01 9.3384364272083786e+00 1.8173299173986897e+00 2.1961101937392538e+01 2 2 -3
4076 1359 4 -8.1999999999999995e-01 6.1854514311015203e+00 3.8311337064119040e+00 2.4924487802691889e+01 -2 2 4
4689 1563 3 4.0999999999999998e-01 7.9841106223668312e+00 8.9695325761230134e+00 2.5100785197057220e+01 6 4 0
4271 1424 4 -8.1999999999999995e-01 8.4185875645874670e+00 2.1261537633084435e+00 2.2367711640314269e+01 2 2 -3
1995 665 3 4.0999999999999998e-01 7.3218273962734548e+00 4.2360878880207503e-01 2.8763025352772271e+01 -4 0 3
6929 2310 4 -8.1999999999999995e-01 2.5419106307332919e+00 4.0796369682088596e+00 2.2516725868709646e+01 -2 0 -2
321 107 3 4.0999999999999998e-01 7.8782607452921862e+00 4.9610229917819249e+00 2.8732949931073083e+01 1 -1 0
783 261 3 4.0999999999999998e-01 4.7714451235661475e+00 2.4795218232089655e+00 2.1883033373858016e+01 -1 0 -3
3394 1132 3 4.0999999999999998e-01 7.9866477048705073e+00 1.6736240481466977e+00 2.4021555040278141e+01 -1 3 -1
5729 1910 4 -8.1999999999999995e-01 1.2941827432439201e+00 1.0493767327182631e+01 2.1442637455447464e+01 -1 -1 -1
5407 1803 3 4.0999999999999998e-01 7.6393429453588757e+00 6.2692834468927208e+00 2.3021541102952188e+01 -1 -1 0
7101 2367 3 4.0999999999999998e-01 5.7421848284757502e+00 1.0793105181882743e+00 2.4640666975548427e+01 3 -1 2
792 264 3 4.0999999999999998e-01 4.8971149537713590e+00 2.3714679285641016e-01 2.1216115983789521e+01 -4 1 -3
5652 1884 3 4.0999999999999998e-01 2.4506615622334804e+00 3.7156744680715232e+00 2.6861985912003639e+01 2 2 -3
3562 1188 3 4.0999999999999998e-01 1.6125019991737897e+00 7.2608229849225614e+00 2.5782867373633529e+01 1 -3 5
319 107 3 4.0999999999999998e-01 7.3201446025694299e+00 4.5570401921753261e+00 2.7275067678570881e+01 1 -1 0
790 264 3 4.0999999999999998e-01 3.2966104674996815e+00 5.0417845550251839e-01 2.1713776635374696e+01 -4 1 -3
320 107 4 -8.1999999999999995e-01 8.0311214024323974e+00 4.3147774545328081e+00 2.7938982978701567e+01 1 -1 0
6039 2013 3 4.0999999999999998e-01 8.2995950896951864e+00 1.0383374461973800e+01 2.3177796144022317e+01 2 0 -1
908 303 4 -8.1999999999999995e-01 9.7089297489801361e+00 6.7056256739489228e+00 2.6106587190775695e+01 0 1 -4
4077 1359 3 4.0999999999999998e-01 6.8533485966307852e+00 3.1143352667061373e+00 2.5028685029039060e+01 -2 2 4
5408 1803 4 -8.1999999999999995e-01 7.5067955797830663e+00 6.2726962810198676e+00 2.4066341549365564e+01 -1 -1 0
791 264 4 -8.1999999999999995e-01 4.2847197312646692e+00 7.1271698853780985e-01 2.1966264145499018e+01 -4 1 -3
6656 2219 4 -8.1999999999999995e-01 7.6572396481719904e+00 7.7902095380144480e+00 2.7835677465026841e+01 0 3 3
5585 1862 4 -8.1999999999999995e-01 4.2036473428966348e+00 1.0106709004776542e+01 2.1095696428468756e+01 2 0 0
3219 1073 3 4.0999999999999998e-01 5.5187361037069129e+00 2.2221309572879913e-01 3.0907295525371531e+01 -2 0 2
4830 1610 3 4.0999999999999998e-01 8.6968018534788669e+00 8.9412399946973959e+00 3.0104176228517805e+01 -1 3 -1
1480 494 3 4.0999999999999998e-01 1.0094329883360187e+01 4.0087480026086064e+00 2.4694587273408008e+01 -1 0 -1
6928 2310 3 4.0999999999999998e-01 2.8623793044544787e+00 5.0979968741157409e+00 2.2480109515493655e+01 -2 0 -2
4075 1359 3 4.0999999999999998e-01 5.5425834541915577e+00 3.5842317282195104e+00 2.4165933816450707e+01 -2 2 4