LAMMPS data file via write_data, version 5 Jun 2019, timestep = 13500000

7349 atoms
5 atom types
4899 bonds
2 bond types
2451 angles
2 angle types
1 impropers
1 improper types

1.5519297081455363e-01 4.1845807029189409e+01 xlo xhi
1.5469297081455124e-01 4.1845307029189406e+01 ylo yhi
1.5469297081455124e-01 4.1845307029189406e+01 zlo zhi

#Masses
#
#1 12.01
#2 40.08
#3 1.01
#4 16
#5 16
#
#Bond Coeffs # harmonic
#
#1 20.4246 1.3042
#2 22.965 1.012

Atoms # full

5360 1787 4 -8.1999999999999995e-01 4.9114239503411437e+00 5.7511212045274984e+00 5.5529976949652564e+00 1 -2 0
2092 698 3 4.0999999999999998e-01 4.8157277144187578e+00 6.9043735437688918e+00 2.3255593697747936e+00 1 -1 1
4489 1497 3 4.0999999999999998e-01 2.7403332624360894e+00 3.9250403523177324e+00 2.5630876635641644e+00 -2 0 1
1093 365 3 4.0999999999999998e-01 3.8495630763290030e+00 2.1041866551259178e+00 5.7469464019860821e+00 2 1 0
463 155 3 4.0999999999999998e-01 3.3735779214007842e+00 6.5219696932511679e+00 6.4338781509382397e+00 1 5 2
1142 381 4 -8.1999999999999995e-01 3.4267459078289031e-01 9.1095515295055502e+00 1.8792476197382249e+00 1 -1 -2
7137 2379 3 4.0999999999999998e-01 2.5749037974266464e+00 6.5302424945522182e+00 2.3691201296863018e+00 -1 0 1
678 226 3 4.0999999999999998e-01 4.1429354532962090e+00 8.4743382756752599e+00 3.7155278670018781e+00 1 1 1
7135 2379 3 4.0999999999999998e-01 1.5512687923911035e+00 5.7817446470210898e+00 3.3152699022872376e+00 -1 0 1
5577 1859 3 4.0999999999999998e-01 7.4918085936341807e+00 1.6849960043169103e+00 5.9559440307078351e+00 3 1 8
67 23 3 4.0999999999999998e-01 2.5747069530242062e-01 4.6776654187927873e+00 4.9082639420222369e+00 -2 -1 1
6064 2022 3 4.0999999999999998e-01 2.9849414888140378e+00 4.4175539995883080e+00 9.5796117326894930e+00 -1 -2 1
321 107 3 4.0999999999999998e-01 1.9669196817308541e+00 9.7274715462951278e+00 5.5177307270779679e+00 1 -1 0
2688 896 3 4.0999999999999998e-01 3.4654839290574930e+00 3.0541144450047377e+00 7.7467358295943729e+00 -1 5 1
2663 888 4 -8.1999999999999995e-01 1.0096460751545699e+01 7.5406102247193951e-01 9.0984979822490502e+00 -2 1 2
4802 1601 4 -8.1999999999999995e-01 9.3637782372017195e+00 5.0082075400528074e+00 5.6638964011631803e+00 -1 -1 0
7136 2379 4 -8.1999999999999995e-01 2.4210010773843051e+00 5.6928781061227989e+00 2.9080917846450633e+00 -1 0 1
2714 905 4 -8.1999999999999995e-01 1.0273843287753250e+01 4.7174559665833700e+00 3.2092640723576880e+00 -2 -1 5
1246 416 3 4.0999999999999998e-01 6.1828273519459227e+00 1.6598131872427735e+00 8.4509318621290674e+00 1 0 2
6066 2022 3 4.0999999999999998e-01 3.7351716801798505e+00 5.9055191243026428e+00 1.0138386479890928e+01 -1 -2 1
5361 1787 3 4.0999999999999998e-01 4.4941850387664184e+00 5.4493047557847190e+00 4.6363919240843190e+00 1 -2 0
5766 1922 3 4.0999999999999998e-01 1.0494483484168884e+00 1.9875327492865065e+00 5.9488306092767940e-01 2 -2 0
2159 720 4 -8.1999999999999995e-01 5.8280665060430148e-01 3.0794634664676481e+00 5.7561171255135841e+00 3 2 2
5576 1859 4 -8.1999999999999995e-01 6.9215226071726033e+00 2.5343709284563798e+00 6.0853193771317819e+00 3 1 8
2686 896 3 4.0999999999999998e-01 2.3259383625283725e+00 1.7303136765348768e+00 7.6396225125515729e+00 -1 5 1
793 265 3 4.0999999999999998e-01 1.0257254478069164e+01 3.7799937768098668e+00 6.7474977321826186e+00 -1 3 -2
1066 356 3 4.0999999999999998e-01 2.2607654688062779e+00 1.6719389269465554e+00 2.1718911704778878e+00 0 0 -2
5184 1728 3 4.0999999999999998e-01 6.4118491165124798e+00 6.2697791134684699e+00 5.2299134857848069e+00 1 2 -1
59 20 4 -8.1999999999999995e-01 9.9518740114282291e+00 1.0767117875035430e+00 5.2705325989027729e+00 -2 3 -3
2687 896 4 -8.1999999999999995e-01 3.0101047747504501e+00 2.3451551000934394e+00 7.1909539433122571e+00 -1 5 1
5182 1728 3 4.0999999999999998e-01 7.4980910749756911e+00 7.4142897343733392e+00 4.6085971694643044e+00 1 2 -1
6878 2293 4 -8.1999999999999995e-01 5.4983495530727655e+00 6.6356970856853703e+00 1.0300921114562561e+01 2 0 -5
3256 1086 3 4.0999999999999998e-01 1.1417176750423592e+00 7.4551120041072050e+00 6.6463389633841112e+00 0 0 -3
282 94 3 4.0999999999999998e-01 1.7603513665505204e+00 2.1519491602799738e+00 9.3888659734052329e+00 -1 2 1
1248 416 3 4.0999999999999998e-01 4.5363118879913698e+00 1.8142375228320287e+00 8.8484331313194424e+00 1 0 2
2073 691 3 4.0999999999999998e-01 5.6538857621924823e+00 1.0080686763637129e+01 3.5086032144657815e+00 1 1 5
4122 1374 3 4.0999999999999998e-01 8.7394913410835198e+00 6.5825749811776735e+00 3.2688091948005388e-01 -1 -2 -1
5359 1787 3 4.0999999999999998e-01 5.4262856494319838e+00 4.9604147038771007e+00 5.9456630099563883e+00 1 -2 0
640 214 3 4.0999999999999998e-01 3.4455244120405388e+00 4.9278877016920530e-01 4.5663524116489569e+00 -2 0 1
4801 1601 3 4.0999999999999998e-01 8.6591049397906055e+00 5.7332096496670522e+00 5.4594726800133078e+00 -1 -1 0
1095 365 3 4.0999999999999998e-01 5.4690519494413863e+00 1.8925695275498786e+00 5.3547550032683064e+00 2 1 0
3796 1266 3 4.0999999999999998e-01 4.9034052500288965e+00 3.0966935736770203e+00 1.4825222133341573e+00 -1 -1 -1
320 107 4 -8.1999999999999995e-01 2.8503648899694265e+00 9.8717042716641235e+00 6.0896758332574050e+00 1 -1 0
6065 2022 4 -8.1999999999999995e-01 2.8863354306079549e+00 5.3968035898360291e+00 9.7936898579287011e+00 -1 -2 1
1008 336 3 4.0999999999999998e-01 5.3017152578161593e+00 4.9983506657660479e+00 8.5651473737389399e+00 -4 2 2
2628 876 3 4.0999999999999998e-01 2.7673436759497227e-01 1.0051159680044182e+00 8.4589089551383836e+00 2 3 -1
4048 1350 3 4.0999999999999998e-01 8.9852811184887322e+00 1.1801161172287427e+00 3.7923119153112452e+00 2 -1 1
794 265 4 -8.1999999999999995e-01 1.0390596224607899e+01 2.9533222809246826e+00 7.2900520005464360e+00 -1 3 -2
987 329 3 4.0999999999999998e-01 3.6451884411742355e+00 9.2498821422187625e+00 1.7331840723154777e+00 2 -2 2
2722 908 3 4.0999999999999998e-01 5.3984554591628413e+00 1.4937809731857101e+00 3.1882558480108685e+00 -3 1 -1
6009 2003 3 4.0999999999999998e-01 4.5493059644835121e+00 1.0370709604249942e+01 9.1452696181546731e+00 2 -1 -1
1660 554 3 4.0999999999999998e-01 7.5960693464649225e+00 3.4469374392907408e+00 9.1675622775227283e-01 0 2 1
4154 1385 4 -8.1999999999999995e-01 8.8630002084501776e+00 7.1370729771920720e+00 7.6823267135345876e+00 0 -1 -1
4153 1385 3 4.0999999999999998e-01 9.0534241385699321e+00 7.6901746027043165e+00 6.8763117499592603e+00 0 -1 -1
1247 416 4 -8.1999999999999995e-01 5.3796693538926386e+00 1.2599122329627737e+00 8.9810046937688917e+00 1 0 2
4065 1355 3 4.0999999999999998e-01 1.0436960468279354e+01 6.8041599230274015e+00 8.2695127491958385e+00 -2 -1 2
4257 1419 3 4.0999999999999998e-01 7.2504117122593914e-01 1.0443137394505861e+01 8.3573264949464416e+00 2 1 -1
2093 698 4 -8.1999999999999995e-01 5.5082711747009112e+00 6.1792730095812791e+00 2.4032982925211255e+00 1 -1 1
1662 554 3 4.0999999999999998e-01 8.6548804640538552e+00 2.7089627233058198e+00 2.0097540667929654e+00 0 2 1
5575 1859 3 4.0999999999999998e-01 7.3797812377821010e+00 3.1034411942800784e+00 6.7639541424296503e+00 3 1 8
3750 1250 3 4.0999999999999998e-01 2.4329748639135245e+00 9.9451967836697843e+00 9.6145256063855680e+00 -2 1 5
4803 1601 3 4.0999999999999998e-01 9.7872541596924219e+00 4.8497639194504254e+00 4.7367640901386041e+00 -1 -1 0
1661 554 4 -8.1999999999999995e-01 8.4476072110894922e+00 3.4988143258731736e+00 1.4448665647430119e+00 0 2 1
464 155 4 -8.1999999999999995e-01 2.4838887181614022e+00 6.5590522862138778e+00 6.8800586669287211e+00 1 5 2
3797 1266 4 -8.1999999999999995e-01 5.4845852273310811e+00 3.6997143302539990e+00 9.4564692614290602e-01 -1 -1 -1
5516 1839 4 -8.1999999999999995e-01 8.4510120748353152e+00 8.5479370337880471e+00 3.0858724710419860e+00 -1 0 -1
2723 908 4 -8.1999999999999995e-01 6.0574273783294643e+00 8.8783521190814585e-01 2.6742854478967484e+00 -3 1 -1
4120 1374 3 4.0999999999999998e-01 8.1015677096681760e+00 7.3319142580816390e+00 1.6865636509902910e+00 -1 -2 -1
6457 2153 3 4.0999999999999998e-01 8.9243508955492459e+00 1.0176765532798333e+01 1.6973076342838129e+00 1 -1 2
4049 1350 4 -8.1999999999999995e-01 8.7773850943031118e+00 1.2247463102486431e+00 2.7906035708902204e+00 2 -1 1
676 226 3 4.0999999999999998e-01 4.9500707554365384e+00 7.5774728309009696e+00 4.7938455714087373e+00 1 1 1
5074 1692 3 4.0999999999999998e-01 6.0994029488705177e+00 9.6850383089955088e+00 6.4748588913119862e+00 2 1 1
1006 336 3 4.0999999999999998e-01 6.3390316460172142e+00 3.8075493254979436e+00 8.4529983819100778e+00 -4 2 2
1569 523 3 4.0999999999999998e-01 2.1492029212586905e-01 9.4701511538015364e+00 3.7568807821723160e+00 0 3 1
319 107 3 4.0999999999999998e-01 3.6281723133770627e+00 9.3693492418587443e+00 5.7030878038858130e+00 1 -1 0
5517 1839 3 4.0999999999999998e-01 7.7068385185114776e+00 9.2626675431559740e+00 3.1003627422338718e+00 -1 0 -1
5515 1839 3 4.0999999999999998e-01 9.2607145408405884e+00 8.7499907728855515e+00 3.6793782296378361e+00 -1 0 -1
985 329 3 4.0999999999999998e-01 2.1677257036632587e+00 8.8501740433722578e+00 2.4228807151846028e+00 2 -2 2
986 329 4 -8.1999999999999995e-01 3.2130003726546876e+00 8.6444596608042854e+00 2.4298732439897259e+00 2 -2 2
4491 1497 3 4.0999999999999998e-01 3.5651779223246272e+00 2.8892294638430109e+00 3.6672985606878812e+00 -2 0 1
5183 1728 4 -8.1999999999999995e-01 7.3550696919670697e+00 6.7576412714519680e+00 5.3962415440798006e+00 1 2 -1
2094 698 3 4.0999999999999998e-01 6.3352083441388984e+00 6.3588350237004905e+00 1.8264488472927767e+00 1 -1 1
2841 947 3 4.0999999999999998e-01 9.1134676173802802e+00 8.2700071739313028e+00 9.4768402441993818e+00 0 -2 -2
677 226 4 -8.1999999999999995e-01 4.8985860933178751e+00 8.5652984361440101e+00 4.4458126357729020e+00 1 1 1
1568 523 4 -8.1999999999999995e-01 3.4211927123246921e-01 9.6811107739981033e+00 4.7554148826197249e+00 0 3 1
4155 1385 3 4.0999999999999998e-01 8.0838248699211572e+00 6.5108702356350490e+00 7.5667959365750672e+00 0 -1 -1
1068 356 3 4.0999999999999998e-01 2.2187995702021648e+00 2.1596462280291873e-01 1.2980886691704245e+00 0 0 -2
281 94 4 -8.1999999999999995e-01 2.4639705952275155e+00 2.6921821724010684e+00 9.9139277342527592e+00 -1 2 1
1094 365 4 -8.1999999999999995e-01 4.5077297678039150e+00 1.8372186280523592e+00 4.9683527225237141e+00 2 1 0
5705 1902 4 -8.1999999999999995e-01 8.0228065843938374e+00 3.7811793533103586e+00 8.8317785133716598e+00 2 -1 1
5706 1902 3 4.0999999999999998e-01 8.9941982165007186e+00 4.1012684369041574e+00 8.5543988148385299e+00 2 -1 1
4490 1497 4 -8.1999999999999995e-01 3.1872962708741914e+00 3.0202921816138479e+00 2.7195316979674748e+00 -2 0 1
3160 1054 3 4.0999999999999998e-01 1.5974039073648794e+00 6.4016754197889378e+00 1.0299153723362760e+01 5 -3 2
2664 888 3 4.0999999999999998e-01 1.0211442091946147e+01 1.5673957790065414e+00 8.4555806551240753e+00 -2 1 2
2158 720 3 4.0999999999999998e-01 1.5338592327306833e+00 2.8910293457896930e+00 5.9700383524111871e+00 3 2 2
465 155 3 4.0999999999999998e-01 2.5586999948365858e+00 6.2186443164725462e+00 7.8259356373244851e+00 1 5 2
1007 336 4 -8.1999999999999995e-01 5.3740911518540653e+00 4.0565122724213731e+00 8.1977404009855821e+00 -4 2 2
4121 1374 4 -8.1999999999999995e-01 7.8439879146918985e+00 6.7328358077077208e+00 9.0804868220128887e-01 -1 -2 -1
2715 905 3 4.0999999999999998e-01 9.4846375328037649e+00 4.4281958145463483e+00 2.7064416600093653e+00 -2 -1 5
2627 876 4 -8.1999999999999995e-01 1.2098485920778652e+00 5.9860234198348228e-01 8.3590155865480380e+00 2 3 -1
1067 356 4 -8.1999999999999995e-01 1.6826472770956908e+00 9.5947331933054714e-01 1.7414402986221589e+00 0 0 -2
1143 381 3 4.0999999999999998e-01 8.0251211056447291e-01 9.9334023697420299e+00 1.4474872045801517e+00 1 -1 -2
6463 2155 3 4.0999999999999998e-01 9.9645731338237908e+00 1.0047718596827462e+01 8.2438374656560391e+00 -2 6 -2
3798 1266 3 4.0999999999999998e-01 5.1753085251335840e+00 4.6152859383440656e+00 1.3186591008640203e+00 -1 -1 -1
2155 719 3 4.0999999999999998e-01 6.1219861109590878e+00 1.1132227452893255e+00 1.0507072936015772e+01 1 -1 3
2840 947 4 -8.1999999999999995e-01 9.1331958151940995e+00 8.3282252715285097e+00 1.0486787249144195e+01 0 -2 -2
4050 1350 3 4.0999999999999998e-01 7.8283923151691805e+00 8.8729340878470297e-01 2.5998004283393525e+00 2 -1 1
5704 1902 3 4.0999999999999998e-01 8.1478834249344239e+00 3.6699777037808645e+00 9.8274039394566142e+00 2 -1 1
3161 1054 4 -8.1999999999999995e-01 9.4570536724093235e-01 7.1527616380167514e+00 1.0527570144403057e+01 5 -3 2
58 20 3 4.0999999999999998e-01 1.0312967745034268e+01 1.6489214745771437e+00 6.0582880857738637e+00 -2 3 -3
4255 1419 3 4.0999999999999998e-01 2.1463012900461269e+00 1.0516984686822559e+01 7.4118501438598798e+00 2 1 -1
6877 2293 3 4.0999999999999998e-01 5.2483501192229332e+00 7.6139970443744041e+00 1.0494005455398927e+01 2 0 -5
4664 1555 4 -8.1999999999999995e-01 1.0568270766666371e+01 8.3162295657795688e+00 4.5721124131961624e+00 1 -2 0
5075 1692 4 -8.1999999999999995e-01 6.3078633097272734e+00 1.0565811986671179e+01 6.8642179505572303e+00 2 1 1
5196 1732 3 4.0999999999999998e-01 6.8239605362835354e+00 5.5164955221870802e+00 2.0580756802168963e+01 2 2 -2
3749 1250 4 -8.1999999999999995e-01 2.7000126106683084e+00 9.7617406383431220e+00 1.0600117330968997e+01 -2 1 5
3715 1239 3 4.0999999999999998e-01 3.8311447632226372e+00 1.5288843110691586e+00 1.3405308239289292e+01 4 -2 3
7125 2375 3 4.0999999999999998e-01 9.6056513497386451e+00 6.2869531791031088e+00 2.0795087430632442e+01 1 2 1
475 159 3 4.0999999999999998e-01 1.6315466446050906e+00 6.6442487160481187e+00 1.9835189777458638e+01 -2 2 1
2825 942 4 -8.1999999999999995e-01 6.3896959892547249e+00 1.9345288390932016e+00 2.0744361193396788e+01 -1 5 -2
2811 937 3 4.0999999999999998e-01 9.8471041878992089e+00 4.4853267908256228e-01 1.0815606552034037e+01 0 -1 -2
1849 617 3 4.0999999999999998e-01 5.1252363074419014e+00 7.2065136611637755e+00 1.7903193753024031e+01 2 -1 2
476 159 4 -8.1999999999999995e-01 1.3793502441865766e+00 7.6038064688889655e+00 1.9671950858864079e+01 -2 2 1
6566 2189 4 -8.1999999999999995e-01 8.0006163731247071e+00 6.0981379212203652e+00 1.1489790073988193e+01 3 4 3
4550 1517 4 -8.1999999999999995e-01 4.0114809500760229e+00 8.9598542986371914e+00 1.4135247172582591e+01 3 -3 3
6485 2162 4 -8.1999999999999995e-01 6.0726446174998205e+00 2.4969020985740351e+00 1.3544406213192323e+01 -2 -2 3
3716 1239 4 -8.1999999999999995e-01 3.4407326805207008e+00 5.8244899234681147e-01 1.3620637581555272e+01 4 -2 3
6988 2330 3 4.0999999999999998e-01 1.0494901480823039e+01 6.4263608980117191e+00 1.5974367107290094e+01 -5 -3 3
1493 498 4 -8.1999999999999995e-01 1.2759738047637890e+00 5.2508851959097917e+00 1.8143123921256009e+01 -2 2 -1
7015 2339 3 4.0999999999999998e-01 4.1625509409924497e+00 8.1163980721015729e+00 1.5864024236095126e+01 2 1 1
452 151 4 -8.1999999999999995e-01 4.8941048789482100e-01 3.4169189225050900e+00 1.9776964544055826e+01 3 2 0
316 106 3 4.0999999999999998e-01 3.4430358254265951e+00 1.9116707985256445e+00 1.7120860820679130e+01 3 -3 2
6914 2305 4 -8.1999999999999995e-01 4.7372041886638341e+00 9.2975239342581837e+00 1.9577694004085870e+01 -2 2 -5
5885 1962 4 -8.1999999999999995e-01 8.3657354138398201e+00 4.2378157260456133e+00 1.7512215463259459e+01 1 1 -2
1623 541 3 4.0999999999999998e-01 6.0130943647603834e+00 9.4762661229685126e+00 1.6740668732305863e+01 4 0 1
1494 498 3 4.0999999999999998e-01 3.7074470977026619e-01 5.0991907788919528e+00 1.7655162565581222e+01 -2 2 -1
2809 937 3 4.0999999999999998e-01 8.9465803275220335e+00 7.5984557060929792e-01 1.2194385284456887e+01 0 -1 -2
4938 1646 3 4.0999999999999998e-01 1.0048800416548815e+01 8.4309754360413027e+00 1.5919753600592886e+01 -1 1 3
830 277 4 -8.1999999999999995e-01 5.1857766304845034e+00 4.9334197302762082e+00 1.3547679067340889e+01 3 4 1
1442 481 4 -8.1999999999999995e-01 8.0639739968642943e-01 3.3357793538931624e+00 1.4463775404898724e+01 2 1 0
1354 452 3 4.0999999999999998e-01 1.0326336516562270e+01 5.5245569379606485e-01 1.7499553408356558e+01 -1 -3 -2
1245 415 3 4.0999999999999998e-01 5.9155651187979230e-01 3.5150349653753716e+00 1.2821262157395953e+01 -1 -2 -1
3708 1236 3 4.0999999999999998e-01 6.6682921322314028e+00 6.5844170045591159e+00 1.4151391064702981e+01 2 1 -1
829 277 3 4.0999999999999998e-01 5.1185899643183914e+00 5.1310175733495491e+00 1.2556418015107205e+01 3 4 1
6989 2330 4 -8.1999999999999995e-01 1.0359776957477299e+01 5.3961579731019418e+00 1.6006535029450507e+01 -5 -3 3
7017 2339 3 4.0999999999999998e-01 4.1112717165490258e+00 8.6178246673953200e+00 1.7519915752617219e+01 2 1 1
7016 2339 4 -8.1999999999999995e-01 4.5056367281992511e+00 8.1015841925731404e+00 1.6834604897596392e+01 2 1 1
3707 1236 4 -8.1999999999999995e-01 7.2767941722592431e+00 7.2790448878845435e+00 1.3704541020027198e+01 2 1 -1
1443 481 3 4.0999999999999998e-01 1.6521312662231251e+00 3.5227760265870480e+00 1.4986404190032983e+01 2 1 0
7258 2420 3 4.0999999999999998e-01 2.0227495988524538e-01 1.7135030836767144e+00 2.0224035570907194e+01 1 4 1
416 139 4 -8.1999999999999995e-01 1.0139502646963889e+01 4.3317928506919010e+00 1.1165471188705398e+01 -1 -1 3
2156 719 4 -8.1999999999999995e-01 6.2333264829200861e+00 7.9923952135936049e-01 1.1487108982260850e+01 1 -1 3
5194 1732 3 4.0999999999999998e-01 5.7315680260738811e+00 4.2811879513005646e+00 2.0457166140742228e+01 2 2 -2
2377 793 3 4.0999999999999998e-01 9.0793812209152893e+00 2.5282787123598309e+00 1.4431880176141101e+01 -5 -2 3
1621 541 3 4.0999999999999998e-01 6.2347395337618741e+00 1.0394224048573154e+01 1.5350721662674541e+01 4 0 1
3748 1250 3 4.0999999999999998e-01 1.9987515019246820e+00 9.1083150983295766e+00 1.0984541122084948e+01 -2 1 5
6484 2162 3 4.0999999999999998e-01 6.9023782495187227e+00 2.2736280637047113e+00 1.4189393621015038e+01 -2 -2 3
6190 2064 3 4.0999999999999998e-01 8.3552742568062381e+00 3.0487839129550958e+00 1.8553350749517492e+01 4 2 -4
1851 617 3 4.0999999999999998e-01 5.6412846729198343e+00 5.6575911456012360e+00 1.7600196580412160e+01 2 -1 2
1844 615 4 -8.1999999999999995e-01 6.0266231689915140e+00 4.2266318543431467e+00 1.6147298190868231e+01 0 2 -2
3204 1068 3 4.0999999999999998e-01 2.9809169898674885e+00 6.4701214023993048e+00 1.5221740900573339e+01 0 1 1
6130 2044 3 4.0999999999999998e-01 7.7164527367017610e-01 2.0027826633491239e+00 1.6889594775714457e+01 5 -2 1
1441 481 3 4.0999999999999998e-01 3.9535491384597859e-01 2.5476929303596689e+00 1.5029871448442030e+01 2 1 0
831 277 3 4.0999999999999998e-01 5.3936807588632734e+00 3.9093531198915055e+00 1.3544038425347283e+01 3 4 1
6192 2064 3 4.0999999999999998e-01 7.7514021467872132e+00 2.1726682617047381e+00 1.9676162030422738e+01 4 2 -4
1634 545 4 -8.1999999999999995e-01 3.9363128272515739e+00 3.1937507152787434e+00 1.9970610025260303e+01 4 4 -1
3300 1100 3 4.0999999999999998e-01 7.5141204267059871e+00 6.5647938217905510e+00 1.9294178779726877e+01 0 0 -1
6915 2305 3 4.0999999999999998e-01 5.1649043982240990e+00 8.5427184146776778e+00 2.0210498866797874e+01 -2 2 -5
77 26 4 -8.1999999999999995e-01 8.7531246749541936e+00 8.9981590237316311e+00 1.5177202865219922e+01 -1 3 -2
3202 1068 3 4.0999999999999998e-01 1.2981337263919772e+00 6.5417544416384450e+00 1.5083448999054578e+01 0 1 1
1355 452 4 -8.1999999999999995e-01 9.4474471896436434e+00 9.3279929308191778e-01 1.7099157482107529e+01 -1 -3 -2
417 139 3 4.0999999999999998e-01 1.0446137226145087e+01 4.1474353000667934e+00 1.2150526947045192e+01 -1 -1 3
2178 726 3 4.0999999999999998e-01 1.4308580255720524e+00 7.3448526868766448e+00 1.3368103353795849e+01 2 1 1
1356 452 3 4.0999999999999998e-01 9.1249743440989803e+00 1.4781296729674425e+00 1.7972980095903004e+01 -1 -3 -2
3706 1236 3 4.0999999999999998e-01 7.5670086817127657e+00 6.8393272177196653e+00 1.2846337576087976e+01 2 1 -1
6191 2064 4 -8.1999999999999995e-01 8.6257672160771488e+00 2.2480601611202040e+00 1.9201301745687179e+01 4 2 -4
3299 1100 4 -8.1999999999999995e-01 8.0822293428023499e+00 5.9301199968356206e+00 1.9879838353013646e+01 0 0 -1
6132 2044 3 4.0999999999999998e-01 1.1872609950118778e+00 2.8913378682337036e+00 1.8126085448931626e+01 5 -2 1
1850 617 4 -8.1999999999999995e-01 5.5602568569204349e+00 6.3462401487703630e+00 1.8370549816827928e+01 2 -1 2
6565 2189 3 4.0999999999999998e-01 8.7088336007649509e+00 5.3387921986782567e+00 1.1476671029266855e+01 3 4 3
4931 1644 4 -8.1999999999999995e-01 2.1575328388031241e+00 1.0249144827707006e+01 2.0476257876010077e+01 -1 2 3
6131 2044 4 -8.1999999999999995e-01 1.5880460817516442e+00 2.4109455846735610e+00 1.7337084341771764e+01 5 -2 1
477 159 3 4.0999999999999998e-01 6.2902740882162189e-01 7.7741717485961743e+00 1.9049176133625288e+01 -2 2 1
1210 404 3 4.0999999999999998e-01 1.0378998848983972e+01 4.3373905578882823e+00 1.4435377655482737e+01 -3 0 0
2746 916 3 4.0999999999999998e-01 4.3032509917161210e+00 9.4398723219378962e+00 1.0967567863024303e+01 2 1 1
1843 615 3 4.0999999999999998e-01 5.6396858795427551e+00 3.3321071374493991e+00 1.6494778215946727e+01 0 2 -2
5886 1962 3 4.0999999999999998e-01 9.0206590467525540e+00 4.3107787996309366e+00 1.6727782393531935e+01 1 1 -2
2177 726 4 -8.1999999999999995e-01 2.1882899072116500e+00 7.6175621899577628e+00 1.2761576238603080e+01 2 1 1
2824 942 3 4.0999999999999998e-01 5.4110391385339893e+00 2.0527064799632915e+00 2.0601737947845532e+01 -1 5 -2
1492 498 3 4.0999999999999998e-01 1.9237512847588465e+00 5.5880513407806367e+00 1.7458128253284745e+01 -2 2 -1
1635 545 3 4.0999999999999998e-01 3.5156577847264665e+00 3.8436567303412605e+00 1.9395231340665990e+01 4 4 -1
3298 1100 3 4.0999999999999998e-01 8.2545666533328301e+00 5.1436985699027433e+00 1.9265325667216139e+01 0 0 -1
3203 1068 4 -8.1999999999999995e-01 2.0796092778476010e+00 6.5388168930658530e+00 1.5704851338829137e+01 0 1 1
1622 541 4 -8.1999999999999995e-01 6.4374574082400580e+00 1.0296586133478829e+01 1.6381616596837819e+01 4 0 1
1211 404 4 -8.1999999999999995e-01 1.0531329822475881e+01 3.4775616713126749e+00 1.3984489289276176e+01 -3 0 0
6486 2162 3 4.0999999999999998e-01 6.1438217401142490e+00 1.8148593600438860e+00 1.2750673510071723e+01 -2 -2 3
78 26 3 4.0999999999999998e-01 8.2207688779494763e+00 9.7427451191376271e+00 1.5565673772864180e+01 -1 3 -2
317 106 4 -8.1999999999999995e-01 4.4927828401106273e+00 1.9222150102113920e+00 1.7077185077177127e+01 3 -3 2
3276 1092 3 4.0999999999999998e-01 8.7345109877545433e+00 9.7942530232600973e+00 1.1820320847686899e+01 2 3 0
76 26 3 4.0999999999999998e-01 8.0384563295864595e+00 8.3218685725996409e+00 1.4811963382854767e+01 -1 3 -2
318 106 3 4.0999999999999998e-01 4.8372703522536060e+00 9.6878625801558549e-01 1.7312431470539952e+01 3 -3 2
280 94 3 4.0999999999999998e-01 1.9779986158012806e+00 2.7678074581449250e+00 1.0800655670526771e+01 -1 2 1
3162 1054 3 4.0999999999999998e-01 1.3020696310676687e+00 7.4946334035856710e+00 1.1455904699074738e+01 5 -3 2
2176 726 3 4.0999999999999998e-01 2.8822874979519595e+00 8.1655277360344503e+00 1.3271320248451673e+01 2 1 1
1845 615 3 4.0999999999999998e-01 5.5455841874510874e+00 4.6394469809358956e+00 1.5301524590114029e+01 0 2 -2
2748 916 3 4.0999999999999998e-01 5.7784942050736632e+00 9.8766489557758366e+00 1.1236379942867007e+01 2 1 1
6567 2189 3 4.0999999999999998e-01 8.5064816443200382e+00 6.9028368757611336e+00 1.0988589633918918e+01 3 4 3
1244 415 4 -8.1999999999999995e-01 3.9251043198388030e-01 3.5758533758700599e+00 1.1816926901292996e+01 -1 -2 -1
4551 1517 3 4.0999999999999998e-01 4.8566959547726114e+00 9.4405122410445017e+00 1.3677675561297425e+01 3 -3 3
2747 916 4 -8.1999999999999995e-01 5.2331545544414757e+00 9.1456663162293896e+00 1.0870336109937352e+01 2 1 1
4549 1517 3 4.0999999999999998e-01 3.3337731049960961e+00 9.6988953713833794e+00 1.4527468235997235e+01 3 -3 3
3274 1092 3 4.0999999999999998e-01 8.7592057512859611e+00 9.7906029113446440e+00 1.3611461501713782e+01 2 3 0
2378 793 4 -8.1999999999999995e-01 8.3807800741109766e+00 1.8149819793170130e+00 1.4748103608492990e+01 -5 -2 3
1633 545 3 4.0999999999999998e-01 3.1660706071596891e+00 2.5580062632771670e+00 2.0165030142408412e+01 4 4 -1
5884 1962 3 4.0999999999999998e-01 7.4324967196620335e+00 4.3264476431024974e+00 1.7001787259057142e+01 1 1 -2
4930 1644 3 4.0999999999999998e-01 1.9319872294529719e+00 9.3225811805837253e+00 2.0121123189122507e+01 -1 2 3
3275 1092 4 -8.1999999999999995e-01 8.7405862600073352e+00 1.0301736750985416e+01 1.2703816015740736e+01 2 3 0
6378 2126 3 4.0999999999999998e-01 9.5409159887707027e+00 1.5627611848575278e+00 2.0327416923334795e+01 -2 -2 -3
2379 793 3 4.0999999999999998e-01 8.8319516976125652e+00 1.4185487739912555e+00 1.5548385346261027e+01 -5 -2 3
6913 2305 3 4.0999999999999998e-01 3.8147949157103391e+00 9.5929072282717396e+00 1.9922154939042048e+01 -2 2 -5
6879 2293 3 4.0999999999999998e-01 6.3640952112203628e+00 6.3635065811707241e+00 1.0817980270816005e+01 2 0 -5
453 151 3 4.0999999999999998e-01 8.9206581630662740e-01 4.1559029601517432e+00 1.9129517691140169e+01 3 2 0
451 151 3 4.0999999999999998e-01 5.5456639515421169e-01 3.7363270694142323e+00 2.0775638589120565e+01 3 2 0
5628 1876 3 4.0999999999999998e-01 5.0701954600017203e+00 6.5916496324491911e+00 2.0935909866418537e+01 4 0 1
2839 947 3 4.0999999999999998e-01 1.0146762115424094e+01 8.3012915919504930e+00 1.0708111987114922e+01 0 -2 -2
6736 2246 3 4.0999999999999998e-01 5.8280262654465513e+00 1.0545951127441707e+01 2.0923622568140722e+01 2 -2 2
1011 337 3 4.0999999999999998e-01 6.2343826594404783e+00 8.3129078812205002e+00 2.6933210006159531e+01 0 1 0
2826 942 3 4.0999999999999998e-01 6.8319678500532568e+00 2.2011433621623979e+00 2.1611622480944014e+01 -1 5 -2
3550 1184 3 4.0999999999999998e-01 2.0212663585826944e+00 5.0262204044038921e+00 2.2682906710146661e+01 1 1 -1
2583 861 3 4.0999999999999998e-01 6.2622911984629388e+00 3.0806160171863048e+00 2.3317090222122072e+01 5 3 3
7062 2354 3 4.0999999999999998e-01 3.2433205461723040e+00 6.1127548067880655e+00 2.3874867969642363e+01 0 1 -1
1131 377 3 4.0999999999999998e-01 3.3705413524633419e+00 1.1400043673319340e+00 2.6048370096413073e+01 -1 0 0
4140 1380 3 4.0999999999999998e-01 1.0200254141071849e+00 8.7544396261233306e+00 2.5153094207153529e+01 5 -1 0
7061 2354 4 -8.1999999999999995e-01 2.8773088299237206e+00 6.5064743402838987e+00 2.2976675334443176e+01 0 1 -1
5111 1704 4 -8.1999999999999995e-01 3.0333307579649085e+00 7.4124748748491056e+00 3.0044417616721866e+01 1 2 -1
1031 344 4 -8.1999999999999995e-01 9.9334453221036494e+00 1.0482517174640067e+01 2.4479764923537953e+01 3 0 -1
3416 1139 4 -8.1999999999999995e-01 4.5052258975497406e-01 8.6722895624512439e+00 3.0236356121491021e+01 1 0 -2
5627 1876 4 -8.1999999999999995e-01 4.7900945716752732e+00 7.3583490686392885e+00 2.1499524911085942e+01 4 0 1
3664 1222 3 4.0999999999999998e-01 8.2984023722961364e+00 1.9863924998514211e+00 2.9410183513866066e+01 -1 -5 1
3665 1222 4 -8.1999999999999995e-01 7.6305412594652822e+00 2.1813391466050334e+00 3.0191752950865670e+01 -1 -5 1
1015 339 3 4.0999999999999998e-01 1.0216692915443135e+01 1.5969069094296842e+00 3.1004494949553504e+01 2 1 2
6162 2054 3 4.0999999999999998e-01 2.3108809609845467e+00 3.8636391864226951e+00 2.7641468110063371e+01 4 2 2
5556 1852 3 4.0999999999999998e-01 6.7585285646495548e+00 2.8653812469834933e-01 2.7288936267619807e+01 4 0 -2
4450 1484 3 4.0999999999999998e-01 5.8670000907690225e+00 9.8013873031067664e+00 2.2649370639445454e+01 0 0 2
3784 1262 3 4.0999999999999998e-01 4.8212962650690869e+00 7.9262458671615865e-01 2.9516687229610216e+01 2 2 0
2172 724 3 4.0999999999999998e-01 8.0635470520998282e+00 7.5107583085345571e+00 2.5062243290059229e+01 -2 0 -3
3992 1331 4 -8.1999999999999995e-01 4.8918961577126447e+00 4.0561640123991074e+00 2.3275472431265996e+01 3 0 0
4492 1498 3 4.0999999999999998e-01 7.9464043909094855e+00 5.0828688086601206e+00 2.6441391937524184e+01 1 -1 -1
4748 1583 4 -8.1999999999999995e-01 9.4778991841218332e+00 1.5469492064411494e+00 2.8436718206599220e+01 2 -1 -1
5640 1880 3 4.0999999999999998e-01 7.4558496045417773e+00 9.7659503469867488e+00 2.6360536358960417e+01 0 0 -3
5602 1868 3 4.0999999999999998e-01 8.8600379170437158e+00 3.0337938839439884e+00 2.6008822940179606e+01 1 3 4
3417 1139 3 4.0999999999999998e-01 1.4614746349077223e+00 8.5359989362029758e+00 3.0101351821630235e+01 1 0 -2
4139 1380 4 -8.1999999999999995e-01 1.4844287968169256e+00 8.5063536252623582e+00 2.6018183987386784e+01 5 -1 0
5502 1834 3 4.0999999999999998e-01 5.6485222156446895e+00 4.3267583285626019e+00 2.8425116744487298e+01 -1 0 0
5501 1834 4 -8.1999999999999995e-01 5.9241011713253160e+00 4.3328878075922521e+00 2.9401537288561265e+01 -1 0 0
6161 2054 4 -8.1999999999999995e-01 2.9945471443245286e+00 3.6349324537383465e+00 2.8393694424122739e+01 4 2 2
2170 724 3 4.0999999999999998e-01 7.0804334435170722e+00 8.7717477525509011e+00 2.4470069397053617e+01 -2 0 -3
4210 1404 3 4.0999999999999998e-01 3.9594066579046322e-01 7.0628767027721127e+00 2.6712383277871865e+01 2 0 0
4138 1380 3 4.0999999999999998e-01 2.0378956972701734e+00 9.3319031077009242e+00 2.6304370410021278e+01 5 -1 0
4985 1662 4 -8.1999999999999995e-01 8.1391664418029075e-01 8.1542596127919982e+00 2.3454209463576007e+01 2 0 1
6160 2054 3 4.0999999999999998e-01 3.9027570984624820e+00 3.3892744389054066e+00 2.7954186558508002e+01 4 2 2
3785 1262 4 -8.1999999999999995e-01 5.7881203621093711e+00 5.3350915902156693e-01 2.9243577247716875e+01 2 2 0
4451 1484 4 -8.1999999999999995e-01 5.6476575970941445e+00 9.0939026991836087e+00 2.3315424982343465e+01 0 0 2
3953 1318 4 -8.1999999999999995e-01 3.4214075140548914e+00 1.0328168599293585e+01 2.9766688662735557e+01 1 1 -2
4494 1498 3 4.0999999999999998e-01 7.1737989739770178e+00 6.5875088319016104e+00 2.6550381055358109e+01 1 -1 -1
1683 561 3 4.0999999999999998e-01 2.5415606393290968e+00 7.6694196633135068e+00 2.7041412434000133e+01 -3 4 -1