LAMMPS data file via write_data, version 5 Jun 2019, timestep = 10500000

7349 atoms
5 atom types
4899 bonds
2 bond types
2451 angles
2 angle types
1 impropers
1 improper types

1.5519297081455363e-01 4.1845807029189409e+01 xlo xhi
1.5469297081455124e-01 4.1845307029189406e+01 ylo yhi
1.5469297081455124e-01 4.1845307029189406e+01 zlo zhi

#Masses
#
#1 12.01
#2 40.08
#3 1.01
#4 16
#5 16
#
#Bond Coeffs # harmonic
#
#1 20.4246 1.3042
#2 22.965 1.012

Atoms # full

3897 1299 3 4.0999999999999998e-01 5.7974838201427126e+00 7.0458599873168541e+00 6.9588299632931934e+00 3 -1 -1
5106 1702 3 4.0999999999999998e-01 4.8249605975278733e+00 7.1803668156870204e+00 4.8168801875291436e+00 0 -1 0
6997 2333 3 4.0999999999999998e-01 6.9849096738978922e+00 1.0566584932616481e+01 5.3159295008949261e+00 -1 2 -1
3581 1194 4 -8.1999999999999995e-01 6.1568226942482633e+00 4.5684961082727060e+00 2.9870184459320086e+00 -1 -1 5
380 127 4 -8.1999999999999995e-01 9.5516828296811629e-01 4.5478790097482698e+00 3.7250554055355822e+00 2 0 0
2551 851 3 4.0999999999999998e-01 9.0988603330367699e+00 4.5487096999121119e+00 2.7777962016747693e+00 3 -1 -1
2828 943 4 -8.1999999999999995e-01 9.4733461185911434e+00 8.4571085228589133e+00 6.1424790248820278e+00 0 3 2
2596 866 3 4.0999999999999998e-01 1.0414507839892165e+01 1.2402740944918489e+00 9.1375920602733385e-01 1 2 0
1442 481 4 -8.1999999999999995e-01 1.6242520164206875e+00 5.4126770834492266e-01 5.6486216122704347e+00 1 1 0
1825 609 3 4.0999999999999998e-01 8.1483890647774651e+00 8.5894895791606043e+00 4.5543288289796182e+00 -1 4 3
2827 943 3 4.0999999999999998e-01 9.2975046267113459e+00 8.0598607567115348e+00 7.0426696431744098e+00 0 3 2
5489 1830 4 -8.1999999999999995e-01 4.0271998434382263e+00 2.6791784275945729e+00 5.8945165129208377e+00 -1 2 0
4255 1419 3 4.0999999999999998e-01 4.8612946958494624e-01 2.9671973796121289e+00 3.3425819432106945e+00 2 1 -2
1313 438 4 -8.1999999999999995e-01 8.8382139556762276e+00 7.1798353269354980e+00 8.2495747923527620e+00 0 -1 0
1826 609 4 -8.1999999999999995e-01 7.9007105377152733e+00 8.4278421611655343e+00 3.5885806107874862e+00 -1 4 3
2829 943 3 4.0999999999999998e-01 1.0347910173892895e+01 8.8858338075885577e+00 6.1156443597741736e+00 0 3 2
4619 1540 4 -8.1999999999999995e-01 6.6426699086503804e+00 8.3243422610996092e+00 3.8151666896885439e-01 0 1 0
5843 1948 4 -8.1999999999999995e-01 6.2257929097531459e+00 1.0088159751189263e+01 1.0041448304646408e+01 -1 2 -2
6998 2333 4 -8.1999999999999995e-01 7.3206905149723394e+00 1.0521338864217698e+01 6.2360570824658632e+00 -1 2 -1
3219 1073 3 4.0999999999999998e-01 4.5230051984845412e+00 3.9459484208375453e+00 3.1496410584140850e+00 -2 0 3
7255 2419 3 4.0999999999999998e-01 7.5945995519054925e+00 1.5536498590807832e+00 2.7455505762589629e+00 -1 1 3
4774 1592 3 4.0999999999999998e-01 2.6328234954214462e+00 5.5537371725063922e+00 9.0273768796365754e+00 -1 -2 0
1314 438 3 4.0999999999999998e-01 7.8604901276305279e+00 6.7734913232583311e+00 7.9676274356932257e+00 0 -1 0
5488 1830 3 4.0999999999999998e-01 4.0750827432218948e+00 1.7108283110041853e+00 6.2380359869954223e+00 -1 2 0
1445 482 4 -8.1999999999999995e-01 1.6725849232129837e+00 8.0880411680047057e+00 7.0400671651236202e+00 0 2 -1
3254 1085 4 -8.1999999999999995e-01 9.1616319697702782e+00 5.7312149997314217e+00 3.9081067854263432e+00 1 0 -2
4971 1657 3 4.0999999999999998e-01 1.8605661599704604e-01 4.8476784765501915e+00 5.4819233876839304e+00 -1 0 -1
4211 1404 4 -8.1999999999999995e-01 9.5998350712666554e+00 5.1680458342185283e+00 9.9556546506635915e+00 1 1 0
2814 938 3 4.0999999999999998e-01 1.7791080520636533e+00 9.7559803159794640e+00 4.5268479789399230e+00 1 1 -2
5844 1948 3 4.0999999999999998e-01 5.6637697583065663e+00 9.8236135602957741e+00 9.2104298051812172e+00 -1 2 -2
3582 1194 3 4.0999999999999998e-01 6.7955506041769240e+00 4.7691808622960634e+00 2.2510624628755020e+00 -1 -1 5
3612 1204 3 4.0999999999999998e-01 9.2758595869676750e+00 8.4698514666917912e+00 2.6357850962033846e+00 1 -1 0
5342 1781 4 -8.1999999999999995e-01 6.2461757143542085e-01 5.9998781227722455e+00 8.3262151748913329e+00 0 -2 3
589 197 3 4.0999999999999998e-01 8.2024543076592433e+00 3.8785774213347053e+00 9.7520988091599801e+00 1 0 2
6721 2241 3 4.0999999999999998e-01 9.0444250132362445e+00 8.3378810001638630e+00 9.9109934926858188e+00 1 0 1
3540 1180 3 4.0999999999999998e-01 4.7660259416462019e+00 2.6929472610578192e-01 8.1153887551486665e+00 3 0 2
3218 1073 4 -8.1999999999999995e-01 3.5886684491947816e+00 3.7300777854024956e+00 3.5838660111955094e+00 -2 0 3
2552 851 4 -8.1999999999999995e-01 9.0819330981019792e+00 3.9412373236410883e+00 1.9102934427702971e+00 3 -1 -1
5490 1830 3 4.0999999999999998e-01 4.5210893188755641e+00 3.1818575842458854e+00 6.6057479125227490e+00 -1 2 0
1312 438 3 4.0999999999999998e-01 9.1101460988455152e+00 6.4249408545843245e+00 8.9004073595757927e+00 0 -1 0
6212 2071 4 -8.1999999999999995e-01 1.9227474879022908e+00 8.4485300322450616e+00 3.7444916275707896e+00 2 0 -1
4267 1423 3 4.0999999999999998e-01 8.4381913917955220e+00 3.0231925248170128e+00 5.7039169496163078e+00 -2 2 1
6630 2210 3 4.0999999999999998e-01 6.8151374303784662e+00 7.3222123006313933e-01 8.6842011889279846e-01 1 -1 2
4212 1404 3 4.0999999999999998e-01 1.0569836711160763e+01 5.0794456045875318e+00 9.5834863058544570e+00 1 1 0
3448 1150 3 4.0999999999999998e-01 1.0118643282618146e+01 1.9858180630249236e+00 6.2044483176572456e+00 0 0 0
5105 1702 4 -8.1999999999999995e-01 4.5639356698545583e+00 7.3616625471431147e+00 5.7936483617653396e+00 0 -1 0
3539 1180 4 -8.1999999999999995e-01 3.9143749218608965e+00 4.2079133218828346e-01 7.5643545398055227e+00 3 0 2
7256 2419 4 -8.1999999999999995e-01 7.5547561073151712e+00 5.5465469770501852e-01 2.4984802476085575e+00 -1 1 3
232 78 3 4.0999999999999998e-01 3.2059172416488368e+00 7.5610218596123291e+00 7.3984932914579815e-01 2 2 1
590 197 4 -8.1999999999999995e-01 7.5687388106317703e+00 3.0884526752493424e+00 9.7609428339691835e+00 1 0 2
2598 866 3 4.0999999999999998e-01 9.7207310138564722e+00 2.7533203931347727e+00 8.3020843626716645e-01 1 2 0
4256 1419 4 -8.1999999999999995e-01 6.0519789437158644e-01 1.9583440743717659e+00 3.0829536263197408e+00 2 1 -2
3255 1085 3 4.0999999999999998e-01 9.1898097739286531e+00 6.7341220715026138e+00 4.0966799043000917e+00 1 0 -2
591 197 3 4.0999999999999998e-01 8.0942373227848545e+00 2.2499261013123184e+00 1.0032398081841940e+01 1 0 2
7151 2384 4 -8.1999999999999995e-01 5.1139213356412849e+00 9.3717602793040964e+00 7.5264002668837318e+00 1 -1 0
2280 760 3 4.0999999999999998e-01 2.6265406313886683e+00 9.7985071366958802e+00 9.7529208325082024e+00 0 1 3
6471 2157 3 4.0999999999999998e-01 2.4861623545454288e+00 9.6878753907286743e+00 7.1079380488698716e+00 1 0 0
1446 482 3 4.0999999999999998e-01 1.1060244674313431e+00 8.1050421753300732e+00 6.1966960829215703e+00 0 2 -1
5104 1702 3 4.0999999999999998e-01 3.6196077081472700e+00 7.0634697378949118e+00 5.8874631560066861e+00 0 -1 0
128 43 4 -8.1999999999999995e-01 4.0505081625770565e+00 1.3369668392271130e+00 2.4423395308847891e+00 0 0 2
233 78 4 -8.1999999999999995e-01 4.1208291632768859e+00 7.1990214020328995e+00 9.3008756676544546e-01 2 2 1
379 127 3 4.0999999999999998e-01 7.0141095697050637e-01 5.3250033855156724e+00 3.1716347134709908e+00 2 0 0
3580 1194 3 4.0999999999999998e-01 6.6608029701839158e+00 4.0402859321286959e+00 3.7333664053991278e+00 -1 -1 5
7150 2384 3 4.0999999999999998e-01 4.7317583742407532e+00 8.6395907196503217e+00 6.8166075883682860e+00 1 -1 0
3610 1204 3 4.0999999999999998e-01 1.0161393688480644e+01 7.6738510696457842e+00 1.2921544544375034e+00 1 -1 0
1441 481 3 4.0999999999999998e-01 2.0558607814873926e+00 1.2571014918179839e+00 6.1772923953553232e+00 1 1 0
6999 2333 3 4.0999999999999998e-01 8.0677698821638302e+00 9.8546357052465634e+00 6.2859627501314979e+00 -1 2 -1
822 274 3 4.0999999999999998e-01 6.3109331952925523e+00 4.7351590737204772e+00 7.5885272794472876e+00 1 1 -1
6680 2227 4 -8.1999999999999995e-01 1.3912495519693275e+00 7.5288564841801930e+00 7.1082789828302040e-01 1 3 1
5415 1805 3 4.0999999999999998e-01 4.8386634303756351e+00 7.2297910818609505e+00 2.4645876943326868e+00 0 2 1
381 127 3 4.0999999999999998e-01 1.9074046087004493e+00 4.1772941287119316e+00 3.7385755991214742e+00 2 0 0
2749 917 3 4.0999999999999998e-01 1.1067516514312115e+00 1.9989471313029616e+00 9.7261781789987234e-01 4 3 1
821 274 4 -8.1999999999999995e-01 6.2140232730705325e+00 3.7259805448896768e+00 7.3557250821028024e+00 1 1 -1
3896 1299 4 -8.1999999999999995e-01 6.3920703779539609e+00 6.5895111307053602e+00 7.6813022685035914e+00 3 -1 -1
4269 1423 3 4.0999999999999998e-01 6.9062318078559146e+00 3.6428542012083516e+00 5.7681023069796886e+00 -2 2 1
4268 1423 4 -8.1999999999999995e-01 7.7071052195995486e+00 3.4834772666188867e+00 5.1213381546111236e+00 -2 2 1
2553 851 3 4.0999999999999998e-01 8.5662703422958320e+00 4.4739528665958064e+00 1.1878567447202164e+00 3 -1 -1
1831 611 3 4.0999999999999998e-01 7.1521149126545760e+00 1.0010234723368677e+01 3.4919046072444009e+00 -1 1 1
129 43 3 4.0999999999999998e-01 3.7846270298228606e+00 2.1151093235079204e+00 3.0329979568962924e+00 0 0 2
1827 609 3 4.0999999999999998e-01 6.9347239402821312e+00 7.9207586945203063e+00 3.6508521510159868e+00 -1 4 3
4620 1540 3 4.0999999999999998e-01 6.9486516351088081e+00 9.0007384550681877e+00 1.0713905965773662e+00 0 1 0
1444 482 3 4.0999999999999998e-01 1.3756959847152597e+00 7.2666335418172379e+00 7.6441418444139728e+00 0 2 -1
127 43 3 4.0999999999999998e-01 4.0578212299689502e+00 1.4996487683772985e+00 1.4349790666049005e+00 0 0 2
4257 1419 3 4.0999999999999998e-01 1.2472641993546176e+00 1.5468767288591263e+00 3.7638098855523099e+00 2 1 -2
6679 2227 3 4.0999999999999998e-01 6.5488518163835507e-01 7.2984433883724957e+00 1.3981904705233825e+00 1 3 1
3685 1229 3 4.0999999999999998e-01 4.2877770169393452e+00 6.2487181289326941e+00 1.0202567447377001e+01 0 1 4
5414 1805 4 -8.1999999999999995e-01 5.5027920182875789e+00 7.1517917786240277e+00 3.2214901875846547e+00 0 2 1
3449 1150 4 -8.1999999999999995e-01 9.2941469933062208e+00 2.2256108097974847e+00 6.7818839855936011e+00 0 0 0
5413 1805 3 4.0999999999999998e-01 5.6684265949432202e+00 6.1233015142618088e+00 3.0952349542729647e+00 0 2 1
6213 2071 3 4.0999999999999998e-01 1.0942219136359925e+00 8.3203652190761517e+00 3.1786262749000747e+00 2 0 -1
4618 1540 3 4.0999999999999998e-01 5.6527768122826760e+00 8.0575056228243618e+00 5.3312450555425739e-01 0 1 0
6211 2071 3 4.0999999999999998e-01 2.6976106868172485e+00 8.0576906307701908e+00 3.2607477058837691e+00 2 0 -1
3611 1204 4 -8.1999999999999995e-01 1.0191096732465082e+01 8.2943462119970732e+00 2.1198942427251146e+00 1 -1 0
3895 1299 3 4.0999999999999998e-01 5.9475248889078616e+00 6.7884381677313153e+00 8.5792290296706142e+00 3 -1 -1
3217 1073 3 4.0999999999999998e-01 3.7725841793182755e+00 3.2951248266823541e+00 4.4993533901171521e+00 -2 0 3
3253 1085 3 4.0999999999999998e-01 8.8952989566333276e+00 5.2750371787529300e+00 4.8025543544766371e+00 1 0 -2
820 274 3 4.0999999999999998e-01 6.4696068732444836e+00 3.2631518175660568e+00 8.1957207235877920e+00 1 1 -1
234 78 3 4.0999999999999998e-01 4.2855574489208799e+00 6.4124271873074754e+00 3.1930292157987861e-01 2 2 1
2279 760 4 -8.1999999999999995e-01 3.4020705378232012e+00 9.3694385476962339e+00 1.0315940286488171e+01 0 1 3
3450 1150 3 4.0999999999999998e-01 8.7389622807198428e+00 1.4111869437881115e+00 6.9643905951061820e+00 0 0 0
3687 1229 3 4.0999999999999998e-01 4.4412630995975375e+00 7.9323809723310879e+00 1.0033885976860674e+01 0 1 4
3686 1229 4 -8.1999999999999995e-01 4.9923487849551931e+00 7.0197481676116764e+00 1.0153147379145853e+01 0 1 4
2597 866 4 -8.1999999999999995e-01 1.0134883549247858e+01 1.9904224998653053e+00 2.7382438470021098e-01 1 2 0
3821 1274 4 -8.1999999999999995e-01 7.7053311495429915e+00 5.5525974032983845e+00 2.9024597353375547e-01 1 1 0
7152 2384 3 4.0999999999999998e-01 5.9278531335831710e+00 9.7980498563610894e+00 7.0925342339327040e+00 1 -1 0
4775 1592 4 -8.1999999999999995e-01 3.0790006918520181e+00 5.1662989991894612e+00 9.8546146453920649e+00 -1 -2 0
4776 1592 3 4.0999999999999998e-01 2.3199180847205798e+00 5.0933473948670152e+00 1.0453971830474549e+01 -1 -2 0
6681 2227 3 4.0999999999999998e-01 1.2028634712091220e+00 8.4770621525399878e+00 3.7476833096062023e-01 1 3 1
3822 1274 3 4.0999999999999998e-01 7.4131848345988018e+00 6.4915045408587151e+00 2.6449520780469271e-01 1 1 0
1354 452 3 4.0999999999999998e-01 3.6269374678592272e+00 3.5325941276902952e+00 1.8544308360343628e+01 0 -2 0
4151 1384 4 -8.1999999999999995e-01 7.2312877519230341e+00 5.4485833567539599e+00 1.3228279244088810e+01 1 1 1
2954 985 4 -8.1999999999999995e-01 6.7119532523411998e+00 3.1378819785254031e+00 1.9752381633763225e+01 -2 4 -1
5567 1856 4 -8.1999999999999995e-01 2.4319496503997171e+00 3.1076452347122290e+00 1.5642327690302707e+01 -1 1 1
2564 855 4 -8.1999999999999995e-01 6.7213395239693359e+00 5.8825244315206868e+00 1.9604684865582747e+01 -1 0 1
6530 2177 4 -8.1999999999999995e-01 9.8390233928588255e+00 5.1151731942126570e+00 1.2603381984434890e+01 -1 -2 2
1553 518 4 -8.1999999999999995e-01 6.9367926097522687e+00 7.5938587659683465e+00 1.6174260599821249e+01 1 1 0
1845 615 3 4.0999999999999998e-01 9.4319735878732889e+00 4.7808811077783391e+00 1.7018617709630782e+01 0 2 -1
2955 985 3 4.0999999999999998e-01 5.7386597528972718e+00 3.0881851691512137e+00 1.9407763060771128e+01 -2 4 -1
6163 2055 3 4.0999999999999998e-01 1.9670107001443917e+00 1.8002228436178349e+00 2.0733510338609719e+01 3 3 0
5566 1856 3 4.0999999999999998e-01 3.2100699020959791e+00 2.9971862728529093e+00 1.4998856913872240e+01 -1 1 1
4210 1404 3 4.0999999999999998e-01 9.5527660955569971e+00 5.2381409848873695e+00 1.0964715720315004e+01 1 1 0
4003 1335 3 4.0999999999999998e-01 9.1513554146878011e+00 1.9954439807492228e+00 1.4042486579129514e+01 -1 0 1
2844 948 3 4.0999999999999998e-01 5.9660557096766098e+00 7.5533618046999358e+00 1.1233899273867111e+01 -1 -1 0
545 182 4 -8.1999999999999995e-01 9.9969736185602649e+00 2.1963207561339182e+00 1.9435905002459180e+01 3 1 0
1356 452 3 4.0999999999999998e-01 3.2348033836747287e+00 2.1429725130160193e+00 1.9563585377934519e+01 0 -2 0
2953 985 3 4.0999999999999998e-01 7.0287203931313211e+00 2.1627844665307547e+00 1.9745976867693468e+01 -2 4 -1
5107 1703 3 4.0999999999999998e-01 5.1914186945427794e+00 2.4103340044024821e+00 1.5335935234937367e+01 -1 -1 2
477 159 3 4.0999999999999998e-01 9.5089773671115054e+00 2.9861051465356097e+00 1.6489915590936022e+01 -2 3 1
1662 554 3 4.0999999999999998e-01 2.9249088290037770e+00 9.8431370367040998e+00 1.3598801147702289e+01 -1 2 1
2331 777 3 4.0999999999999998e-01 6.2314640219095079e+00 1.0145609105147143e+01 1.7010848801065844e+01 -2 -2 -1
5108 1703 4 -8.1999999999999995e-01 5.8358559294903181e+00 2.8084379692430428e+00 1.6002736323557041e+01 -1 -1 2
3929 1310 4 -8.1999999999999995e-01 2.6141724031547087e+00 8.5629529133074627e+00 1.4574134265241332e+01 2 -2 1
6722 2241 4 -8.1999999999999995e-01 8.9258373100290989e+00 8.5978648001490701e+00 1.0899486711740639e+01 1 0 1
5571 1857 3 4.0999999999999998e-01 1.0219206213519808e+01 1.1113540978412193e+00 1.1566083997772461e+01 -4 3 -1
546 182 3 4.0999999999999998e-01 9.9138928983982026e+00 3.0530158609973945e+00 1.8811222575987525e+01 3 1 0
6108 2036 3 4.0999999999999998e-01 1.0450604158932801e+01 8.4458642566020963e+00 1.1554301357761302e+01 -1 3 -2
1554 518 3 4.0999999999999998e-01 7.7777779314840148e+00 7.1062930049022723e+00 1.5760445393183771e+01 1 1 0
3930 1310 3 4.0999999999999998e-01 2.5565105763062816e+00 7.5873811887996565e+00 1.4289348955765277e+01 2 -2 1
495 165 3 4.0999999999999998e-01 2.9963119553789924e-01 2.2689159971658603e+00 1.3237019211348032e+01 0 -2 -1
6845 2282 4 -8.1999999999999995e-01 2.8329730307323762e+00 5.0883776247270394e+00 1.7494863268487496e+01 0 -1 1
1552 518 3 4.0999999999999998e-01 6.3216035052813009e+00 6.8420982870364755e+00 1.6576869018220652e+01 1 1 0
7016 2339 4 -8.1999999999999995e-01 5.1837589703806799e+00 8.2547946124532032e+00 1.4057512136831804e+01 1 -1 0
1231 411 3 4.0999999999999998e-01 4.3080137577886122e+00 9.4644068627702342e+00 1.5872956819250279e+01 -1 0 1
2278 760 3 4.0999999999999998e-01 3.2907625626467438e+00 9.7293504994577305e+00 1.1311387796403908e+01 0 1 3
258 86 3 4.0999999999999998e-01 4.7150899109718214e+00 2.9216463875850640e+00 1.2870651554090340e+01 -1 -1 -2
3700 1234 3 4.0999999999999998e-01 8.2662301301344243e+00 5.3145382372456531e+00 1.4837191141053919e+01 2 -1 0
1911 637 3 4.0999999999999998e-01 1.2792953608665298e+00 1.5406892203368492e+00 1.1243480945909120e+01 1 -2 1
372 124 3 4.0999999999999998e-01 2.2597185164248339e+00 5.4220431285874975e+00 1.3052810736539081e+01 -1 1 2
4753 1585 3 4.0999999999999998e-01 4.3170762419081038e-01 6.6338216273504829e+00 1.9033612932114252e+01 -3 0 -1
475 159 3 4.0999999999999998e-01 9.2736553441646166e+00 1.3990878049065838e+00 1.6120794700029645e+01 -2 3 1
3879 1293 3 4.0999999999999998e-01 5.6057860661192382e+00 6.6545203512062674e+00 2.0740768382619677e+01 -2 3 0
6846 2282 3 4.0999999999999998e-01 2.5420750858833925e+00 4.4746114318899455e+00 1.6675582765295456e+01 0 -1 1
4612 1538 3 4.0999999999999998e-01 1.1434858999345492e+00 1.8699887128609236e+00 1.8706188914883892e+01 3 -1 2
1940 647 4 -8.1999999999999995e-01 8.6465886847101121e+00 7.1663173172180956e+00 2.0638526037403615e+01 -2 2 -1
371 124 4 -8.1999999999999995e-01 2.8799355307621113e+00 5.9251501443172403e+00 1.3800411257731245e+01 -1 1 2
3702 1234 3 4.0999999999999998e-01 9.9601384369683164e+00 5.6169796177464395e+00 1.5092613878135015e+01 2 -1 0
1941 647 3 4.0999999999999998e-01 9.2158143717140959e+00 7.9145757494691207e+00 2.0167039015599638e+01 -2 2 -1
1355 452 4 -8.1999999999999995e-01 3.9808977217963499e+00 2.7669370374294311e+00 1.9117387782290546e+01 0 -2 0
4014 1338 3 4.0999999999999998e-01 8.7818905564749894e+00 1.3681710288432702e+00 1.9901438682313440e+01 1 -1 2
7015 2339 3 4.0999999999999998e-01 5.8060237260365879e+00 7.9182163377241404e+00 1.4865120125682667e+01 1 -1 0
750 250 3 4.0999999999999998e-01 8.3125240514250520e-01 4.0756970842885361e+00 1.1507223072557352e+01 1 3 -4
256 86 3 4.0999999999999998e-01 4.4086158334933341e+00 1.4969654370161298e+00 1.3325526536680036e+01 -1 -1 -2
4004 1335 4 -8.1999999999999995e-01 9.3913857167040860e+00 1.9682753602267031e+00 1.2990742341924001e+01 -1 0 1
5641 1881 3 4.0999999999999998e-01 7.7610728265446349e+00 1.0430384727859904e+01 1.9130220312252693e+01 -2 2 1
5109 1703 3 4.0999999999999998e-01 6.7787113696871426e+00 2.4595836766846930e+00 1.6033536710364416e+01 -1 -1 2
2430 810 3 4.0999999999999998e-01 5.8146278051497626e+00 4.4997169098800578e+00 1.6515180083354938e+01 -3 1 -1
2329 777 3 4.0999999999999998e-01 7.2177127249003901e+00 8.9077497324889841e+00 1.7033652166528285e+01 -2 -2 -1
2480 827 4 -8.1999999999999995e-01 4.4693094559933272e-01 8.2665336576934010e+00 1.1812567669699643e+01 5 2 -4
6762 2254 3 4.0999999999999998e-01 2.9438747504653899e+00 8.7330152715068774e+00 1.8692898266215117e+01 -2 2 0
2565 855 3 4.0999999999999998e-01 6.6524830992980126e+00 4.9069350066484896e+00 1.9874300700459763e+01 -1 0 1
2429 810 4 -8.1999999999999995e-01 5.6442526518286789e+00 5.4319927308575311e+00 1.6935944902450018e+01 -3 1 -1
6529 2177 3 4.0999999999999998e-01 1.0506921898341121e+01 5.4151602034546356e+00 1.3432618297759648e+01 -1 -2 2
7286 2429 4 -8.1999999999999995e-01 4.5965629912768859e+00 4.3330966098604523e-01 1.6904016857043800e+01 -1 1 1
4614 1538 3 4.0999999999999998e-01 1.0363595412912430e+00 2.1767199967453377e+00 1.7095666736232118e+01 3 -1 2
4754 1585 4 -8.1999999999999995e-01 7.7498439214519854e-01 5.6431593859368254e+00 1.9204096334961918e+01 -3 0 -1
6165 2055 3 4.0999999999999998e-01 2.2857917110316128e+00 2.3913742397970697e-01 2.0341586358628568e+01 3 3 0
370 124 3 4.0999999999999998e-01 3.2701471555845156e+00 5.2227814967664790e+00 1.4429377331861147e+01 -1 1 2
4005 1335 3 4.0999999999999998e-01 9.6620813676003436e+00 2.9707774227652561e+00 1.2818592819242150e+01 -1 0 1
7017 2339 3 4.0999999999999998e-01 4.1723173306063730e+00 8.2259156922113075e+00 1.4227310506419336e+01 1 -1 0
2563 855 3 4.0999999999999998e-01 6.6448003264168536e+00 5.8149408545860650e+00 1.8581329339906830e+01 -1 0 1
3928 1310 3 4.0999999999999998e-01 1.6877280523712126e+00 8.9642646507503976e+00 1.4666795126583374e+01 2 -2 1
4570 1524 3 4.0999999999999998e-01 8.1332987534233823e+00 1.0832260680963148e+00 1.1903582159243182e+01 -1 0 1
1932 644 3 4.0999999999999998e-01 9.4727663259951331e+00 1.0101021606151974e+01 1.1681674765719285e+01 1 3 -1
2860 954 3 4.0999999999999998e-01 6.1378102490809106e+00 3.3105174813808729e+00 1.1016347721279862e+01 1 -1 -1
1939 647 3 4.0999999999999998e-01 7.9687052685810098e+00 6.6835893014045613e+00 2.0039146832233758e+01 -2 2 -1
2428 810 3 4.0999999999999998e-01 4.6173573186598267e+00 5.4234410953803316e+00 1.7020586658430179e+01 -3 1 -1
6844 2282 3 4.0999999999999998e-01 2.0776688019202254e+00 5.1175860088326077e+00 1.8187973642402820e+01 0 -1 1
1232 411 4 -8.1999999999999995e-01 4.7032657402031832e+00 1.0186796611434699e+01 1.6463450634666440e+01 -1 0 1
476 159 4 -8.1999999999999995e-01 9.1231171141095135e+00 2.3482875294831209e+00 1.5751862908722448e+01 -2 3 1
257 86 4 -8.1999999999999995e-01 4.3773533394282760e+00 2.4655289238265650e+00 1.3703836454196878e+01 -1 -1 -2
4150 1384 3 4.0999999999999998e-01 6.6688372549379551e+00 4.6701167539202801e+00 1.2831405892179422e+01 1 1 1
1910 637 4 -8.1999999999999995e-01 7.5720382467007075e-01 2.4256604988874453e+00 1.1204971548754928e+01 1 -2 1
6760 2254 3 4.0999999999999998e-01 2.5606325973302519e+00 1.0169582384083256e+01 1.9666895694559990e+01 -2 2 0
749 250 4 -8.1999999999999995e-01 1.1111379870663183e+00 5.0229634301055590e+00 1.1863330481531474e+01 1 3 -4
4152 1384 3 4.0999999999999998e-01 7.2110982952828486e+00 6.2860689457918921e+00 1.2659949451457228e+01 1 1 1
2842 948 3 4.0999999999999998e-01 6.3358145171569653e+00 8.3696428586500762e+00 1.2793199224194531e+01 -1 -1 0
2843 948 4 -8.1999999999999995e-01 6.6914585082427429e+00 7.8954034149358625e+00 1.1917343512887408e+01 -1 -1 0
6164 2055 4 -8.1999999999999995e-01 2.0712870685686222e+00 1.1752730973641585e+00 1.9923687069014139e+01 3 3 0
5568 1856 3 4.0999999999999998e-01 1.5837101068410979e+00 3.1341399009048105e+00 1.5135343843058005e+01 -1 1 1
6723 2241 3 4.0999999999999998e-01 8.0970247900015622e+00 8.0985699221381893e+00 1.1285851445466372e+01 1 0 1
4613 1538 4 -8.1999999999999995e-01 5.1570571598625792e-01 2.2257747568794657e+00 1.7978766919285547e+01 3 -1 2
7285 2429 3 4.0999999999999998e-01 4.4460302309788364e+00 1.4506136740536770e+00 1.7084564549059742e+01 -1 1 1
6531 2177 3 4.0999999999999998e-01 8.9033283322381909e+00 5.2712276821758497e+00 1.2936607914924878e+01 -1 -2 2
1844 615 4 -8.1999999999999995e-01 9.8791131108907297e+00 4.2324585133314443e+00 1.7810243520800164e+01 0 2 -1
2861 954 4 -8.1999999999999995e-01 5.4631470766599062e+00 3.7551253473455883e+00 1.1633204133650755e+01 1 -1 -1
3701 1234 4 -8.1999999999999995e-01 9.0267060612748580e+00 5.5230845889747506e+00 1.5525450444317050e+01 2 -1 0
2330 777 4 -8.1999999999999995e-01 7.2062303063532944e+00 9.8945446256010232e+00 1.7306306548281761e+01 -2 -2 -1
6367 2123 3 4.0999999999999998e-01 2.6170142615123160e-01 8.5357111729139064e+00 2.0016793954226415e+01 -2 -1 3
2479 827 3 4.0999999999999998e-01 1.3176555489484307e+00 7.7673887056948043e+00 1.1876225253369203e+01 5 2 -4
2862 954 3 4.0999999999999998e-01 4.7751681103339116e+00 4.2380762438907267e+00 1.1041588656002096e+01 1 -1 -1
4013 1338 4 -8.1999999999999995e-01 7.8755655015825825e+00 8.7953156865807858e-01 2.0160030085144939e+01 1 -1 2
6761 2254 4 -8.1999999999999995e-01 3.1684457461910394e+00 9.3274861666669100e+00 1.9526143610428225e+01 -2 2 0
304 102 3 4.0999999999999998e-01 2.4329479121318087e-01 5.1046460891688117e+00 1.7793665908571551e+01 -1 2 1
774 258 3 4.0999999999999998e-01 6.7482750470714663e+00 9.9296515773195395e+00 1.4664024850373295e+01 -1 0 2
4755 1585 3 4.0999999999999998e-01 7.1524953965479365e-01 5.3755364536647363e+00 2.0231549840572452e+01 -3 0 -1
753 251 3 4.0999999999999998e-01 5.8638598734624798e+00 2.4458821744951539e-01 1.1980156222569317e+01 0 -1 0
4571 1524 4 -8.1999999999999995e-01 7.6807395396889273e+00 3.3556971075332404e-01 1.1328681513813837e+01 -1 0 1
4498 1500 3 4.0999999999999998e-01 5.1078099737446516e+00 2.0985478103355470e-01 2.0517145223124267e+01 1 -1 2
494 165 4 -8.1999999999999995e-01 3.8467020837096449e-01 2.5737086818289012e+00 1.4215584266086367e+01 0 -2 -1
748 250 3 4.0999999999999998e-01 2.9461753799753154e-01 5.4391549913369177e+00 1.2348298558884924e+01 1 3 -4
1843 615 3 4.0999999999999998e-01 1.0377232675010143e+01 4.9367566202624884e+00 1.8375047716003554e+01 0 2 -1
5842 1948 3 4.0999999999999998e-01 6.5197576549464760e+00 9.2798288286492685e+00 1.0607915637165641e+01 -1 2 -2
6508 2170 3 4.0999999999999998e-01 7.7825472992375886e+00 1.5196801270568692e+00 2.8340266998753936e+01 -1 0 1
1953 651 3 4.0999999999999998e-01 7.1703301207217409e+00 1.9924506982480394e+00 3.1010538989555279e+01 -1 -1 1
614 205 4 -8.1999999999999995e-01 1.0322769573965868e+01 5.3209240413856609e+00 2.2353530047732846e+01 -2 3 2
1742 581 4 -8.1999999999999995e-01 4.7536774875600463e+00 5.4059836132817534e+00 2.3526721627326545e+01 1 -2 2
776 259 4 -8.1999999999999995e-01 6.8920618095780108e+00 6.0507060848883727e+00 2.5504688417087102e+01 0 2 -1
2050 684 3 4.0999999999999998e-01 2.5099594607944340e+00 4.1995734524427242e+00 2.5721242957419268e+01 -2 -1 -2
6234 2078 3 4.0999999999999998e-01 8.6031389547691468e+00 5.0741072767283377e+00 2.8288805501199274e+01 1 3 -4
552 184 3 4.0999999999999998e-01 2.6997926059831441e+00 7.8268456576985201e+00 2.4024021627441009e+01 -1 -4 -1
3436 1146 3 4.0999999999999998e-01 1.0425334286342038e+01 2.9615715410814172e+00 3.1189658921682401e+01 -2 2 -1
2748 916 3 4.0999999999999998e-01 3.4436116662323308e+00 4.1610800739761555e-01 2.9783613159739652e+01 1 0 0
1396 466 3 4.0999999999999998e-01 4.3698135452960694e+00 3.7612842447829151e+00 2.7099757381354713e+01 4 -2 -3
5768 1923 4 -8.1999999999999995e-01 8.8811181774171644e-01 4.3850128309180887e+00 2.6396439589084228e+01 3 -1 -3
6354 2118 3 4.0999999999999998e-01 3.0966655302100525e+00 7.1608887493283326e+00 2.1602619762626691e+01 -2 1 -1
4845 1615 3 4.0999999999999998e-01 2.5104249354540085e+00 7.0095177577066403e+00 2.8285741435203665e+01 2 1 1
848 283 4 -8.1999999999999995e-01 9.0951179023424056e-01 9.7730990682450098e+00 2.2336584511242236e+01 0 3 -5
4407 1469 3 4.0999999999999998e-01 2.2754341350307317e+00 1.7988836548120934e+00 2.8341150608227018e+01 1 4 -3
2976 992 3 4.0999999999999998e-01 7.5247681226630103e+00 9.9311937206862471e+00 2.1438811518588125e+01 -1 -3 4
472 158 3 4.0999999999999998e-01 9.0363618265389771e+00 1.0277243034067792e+01 2.5250963465682133e+01 3 2 2
6516 2172 3 4.0999999999999998e-01 4.2203280511948646e+00 8.2850909592435773e+00 2.5826693116750114e+01 -1 1 0
2768 923 4 -8.1999999999999995e-01 1.3871725012299136e+00 2.2589604239173529e+00 2.2441584583025037e+01 0 0 0
5767 1923 3 4.0999999999999998e-01 1.1842773969031355e+00 3.5850692109231144e+00 2.6934304652429987e+01 3 -1 -3
844 282 3 4.0999999999999998e-01 7.4111437606600861e+00 4.4819829133037539e+00 2.4888478028242396e+01 0 -2 -4
474 158 3 4.0999999999999998e-01 7.6564090384217316e+00 9.6639610380305889e+00 2.4363100204237746e+01 3 2 2
6070 2024 3 4.0999999999999998e-01 8.4956365476612294e+00 3.0436862751728748e+00 2.1256083423177419e+01 -1 0 -5
6072 2024 3 4.0999999999999998e-01 9.5406636803333669e+00 3.8254864918363047e+00 2.2190084933373853e+01 -1 0 -5
4405 1469 3 4.0999999999999998e-01 1.0304011861994820e+00 1.4873235315196998e+00 2.7372371440733954e+01 1 4 -3
2767 923 3 4.0999999999999998e-01 2.3550534117645450e+00 2.6522304441431861e+00 2.2673511179284798e+01 0 0 0
6509 2170 4 -8.1999999999999995e-01 8.3651706974136637e+00 9.7117910138605157e-01 2.7730515371692881e+01 -1 0 1
777 259 3 4.0999999999999998e-01 6.4777387556469819e+00 7.0196388658906725e+00 2.5466652577519248e+01 0 2 -1
2133 711 3 4.0999999999999998e-01 4.8040962015692585e+00 9.9351483285433628e-01 2.6091360982864618e+01 2 4 2
5293 1765 3 4.0999999999999998e-01 9.4833365849925979e+00 2.7723702279397604e+00 2.5561043063805339e+01 -1 -3 3
3995 1332 4 -8.1999999999999995e-01 1.0234759426595129e+01 8.6381507383612472e+00 2.7877301739708670e+01 -1 -1 1
6233 2078 4 -8.1999999999999995e-01 9.4419689068301036e+00 4.5344229423494697e+00 2.8506199653913505e+01 1 3 -4
5294 1765 4 -8.1999999999999995e-01 9.9962064817106722e+00 1.9447852632686342e+00 2.5794734013135503e+01 -1 -3 3
20 7 4 -8.1999999999999995e-01 3.8371277275280264e+00 3.0558705011092426e+00 2.2532889299325262e+01 -2 2 -1
3996 1332 3 4.0999999999999998e-01 9.2970631969102389e+00 8.5510418872503067e+00 2.7652371675060394e+01 -1 -1 1
5152 1718 3 4.0999999999999998e-01 6.8246756593630202e+00 2.1799442319934639e+00 2.5263094799189325e+01 -2 -3 3
615 205 3 4.0999999999999998e-01 9.7308345654253579e+00 5.9344484850274100e+00 2.1773817133672456e+01 -2 3 2
1695 565 3 4.0999999999999998e-01 7.2511641297498626e+00 6.7880062579534721e+00 2.8180892598264332e+01 -1 -1 4
2978 993 4 -8.1999999999999995e-01 7.3414228030921773e+00 2.7888995195728508e+00 2.9419071986379315e+01 4 1 1
2131 711 3 4.0999999999999998e-01 3.4279049542870528e+00 1.9862666654698706e+00 2.5899110993722900e+01 2 4 2
5331 1777 3 4.0999999999999998e-01 2.5591556999481728e+00 8.7185006467378763e+00 2.8792319881130741e+01 -2 0 -1
5330 1777 4 -8.1999999999999995e-01 3.4181573572037278e+00 8.1803084775160304e+00 2.9024456804134026e+01 -2 0 -1
6077 2026 4 -8.1999999999999995e-01 4.6278267575713468e+00 5.6480570977764337e+00 2.9725102390803926e+01 0 -1 1