LAMMPS data file via write_data, version 5 Jun 2019, timestep = 21500000

7349 atoms
5 atom types
4899 bonds
2 bond types
2451 angles
2 angle types
1 impropers
1 improper types

1.5519297081455363e-01 4.1845807029189409e+01 xlo xhi
1.5469297081455124e-01 4.1845307029189406e+01 ylo yhi
1.5469297081455124e-01 4.1845307029189406e+01 zlo zhi

#Masses
#
#1 12.01
#2 40.08
#3 1.01
#4 16
#5 16
#
#Bond Coeffs # harmonic
#
#1 20.4246 1.3042
#2 22.965 1.012

Atoms # full

3564 1188 3 4.0999999999999998e-01 1.0389758099544121e+01 1.8586045032915885e+00 6.2831221724631625e+00 2 -5 5
5261 1754 4 -8.1999999999999995e-01 5.3870584487597792e+00 1.1325961467708014e+00 6.5994275638169997e+00 1 5 -6
187 63 3 4.0999999999999998e-01 3.1502963818390644e+00 5.1075433017281764e+00 7.0429156908598878e-01 1 4 -7
1737 579 3 4.0999999999999998e-01 4.5315222788978931e+00 8.2922289726392027e+00 9.8497634506802179e+00 1 0 -1
1995 665 3 4.0999999999999998e-01 2.2404709846026205e+00 4.8250994643924017e+00 3.6113323550395529e+00 -2 0 5
3992 1331 4 -8.1999999999999995e-01 7.3644412065901292e+00 6.9133742202797990e+00 5.3880891582690724e+00 3 1 -1
1588 530 3 4.0999999999999998e-01 2.9863787117096465e+00 2.4481232872664260e+00 9.6810748000709612e+00 3 -2 -1
3451 1151 3 4.0999999999999998e-01 7.7543354646386540e+00 3.8448063746810957e+00 2.1069170154928583e+00 4 2 -1
3636 1212 3 4.0999999999999998e-01 8.5298944110349346e+00 4.4146507071774976e-01 5.3426558282021031e+00 -1 -3 3
6744 2248 3 4.0999999999999998e-01 8.9977765025770147e+00 9.2932790100572706e+00 9.0702888443229561e+00 0 1 1
800 267 4 -8.1999999999999995e-01 6.0136396435487516e+00 5.2032089022591812e+00 7.0034255420247380e+00 2 1 0
5539 1847 3 4.0999999999999998e-01 7.0915385136320619e-01 2.7078422877319834e+00 8.9346250501018236e+00 1 1 -7
1376 459 4 -8.1999999999999995e-01 6.8068666538352165e+00 6.1575410240490163e+00 9.6003974122695954e+00 -3 5 -5
3028 1010 3 4.0999999999999998e-01 4.4167501324441112e+00 9.1521544196835922e+00 5.8787495300795118e+00 7 -2 2
5532 1844 3 4.0999999999999998e-01 8.5333789410840089e-01 7.1915077461932535e+00 8.4674163459841285e+00 1 0 -1
4745 1582 4 -8.1999999999999995e-01 5.2252397890909585e-01 2.7332240740204914e+00 5.4761282001827647e+00 0 2 1
1673 558 4 -8.1999999999999995e-01 9.1871036734932012e+00 1.0452119848162416e+01 5.2508968908042375e+00 -4 -2 4
4170 1390 3 4.0999999999999998e-01 3.7345909233732919e+00 6.0226834057374514e+00 4.5274774783238820e+00 -2 -3 4
5260 1754 3 4.0999999999999998e-01 4.6011722078605981e+00 4.8686628810143201e-01 6.4378065296517759e+00 1 5 -6
1709 570 4 -8.1999999999999995e-01 5.6906325769357009e+00 8.5741493527783117e+00 8.5898381195828613e+00 1 -1 0
3113 1038 4 -8.1999999999999995e-01 8.5878343700622448e+00 2.1578711794755661e+00 9.1619590503125377e+00 -1 2 -1
3410 1137 4 -8.1999999999999995e-01 2.2013244542247650e+00 6.3112002135066314e+00 9.5882925435626127e+00 -2 3 -3
3409 1137 3 4.0999999999999998e-01 2.9572085516205378e+00 6.8842876009012413e+00 1.0022242023749451e+01 -2 3 -3
1191 397 3 4.0999999999999998e-01 2.4754650330377201e-01 7.4192317657707250e+00 2.6921545663637265e+00 -1 0 -1
2984 995 4 -8.1999999999999995e-01 3.4100997158734478e+00 4.7062447965744605e+00 7.4619644442806221e+00 1 2 1
1654 552 3 4.0999999999999998e-01 4.6784715071953480e+00 9.9605439508309388e+00 2.4401092712441210e+00 -2 -6 6
2985 995 3 4.0999999999999998e-01 3.0531694711911253e+00 5.3587255873727466e+00 6.7582527806615706e+00 1 2 1
1553 518 4 -8.1999999999999995e-01 8.8342671347519719e+00 6.9768145534774986e+00 3.0944314743419450e+00 3 2 -1
5262 1754 3 4.0999999999999998e-01 5.6893311419426524e+00 8.9326783094481432e-01 7.5316357620527823e+00 1 5 -6
4452 1484 3 4.0999999999999998e-01 4.8468195591001555e+00 3.6871716616085504e-01 9.9002173804402460e+00 3 -1 3
3563 1188 4 -8.1999999999999995e-01 9.5942559791024422e+00 1.7156878891733669e+00 5.5903558425967743e+00 2 -5 5
4976 1659 4 -8.1999999999999995e-01 5.5634744491719479e+00 7.2298351291108967e+00 1.0861199341440113e+00 0 3 1
2428 810 3 4.0999999999999998e-01 3.2869833206321020e+00 7.7914482953618878e+00 6.0262732586873318e+00 -1 3 -1
2061 687 3 4.0999999999999998e-01 4.9938422613736427e-01 1.0508426663149981e+01 5.8113519775645690e+00 -5 4 0
1727 576 4 -8.1999999999999995e-01 3.8787857901490841e+00 2.3068050082352949e+00 1.2112053033759709e+00 -2 -2 0
3993 1331 3 4.0999999999999998e-01 6.6486362251529112e+00 7.5941669531080622e+00 5.0263979748373737e+00 3 1 -1
2430 810 3 4.0999999999999998e-01 2.0417237485843409e+00 7.0454032907549609e+00 5.2586560637974840e+00 -1 3 -1
4744 1582 3 4.0999999999999998e-01 1.3732307821411347e+00 2.8941524758536565e+00 6.0853950950966995e+00 0 2 1
2421 807 3 4.0999999999999998e-01 6.1622820010551871e-01 9.5320950242693900e+00 3.5109897744566099e+00 1 -5 -3
1377 459 3 4.0999999999999998e-01 6.4193624049263969e+00 7.0591569449662295e+00 9.3589749252643752e+00 -3 5 -5
2420 807 4 -8.1999999999999995e-01 2.1985798103580773e-01 1.0214311050690766e+01 2.8761182657033171e+00 1 -5 -3
6256 2086 3 4.0999999999999998e-01 8.1276717772217495e+00 2.4022715661932912e+00 6.1361139084725087e+00 -4 -2 0
6257 2086 4 -8.1999999999999995e-01 7.2582908429096058e+00 2.8960890110839435e+00 6.4714057876716380e+00 -4 -2 0
2021 674 4 -8.1999999999999995e-01 6.7219469924944626e+00 2.5825785381805773e+00 1.3094944647896181e+00 1 3 2
3452 1151 4 -8.1999999999999995e-01 8.4808942870100257e+00 4.1660551168550386e+00 2.7994239721893699e+00 4 2 -1
1570 524 3 4.0999999999999998e-01 2.8683090327814114e+00 8.2901121157056217e+00 2.5151819928221451e+00 2 -2 4
2429 810 4 -8.1999999999999995e-01 2.9950691373019196e+00 6.9324708501573795e+00 5.5871287954869011e+00 -1 3 -1
2020 674 3 4.0999999999999998e-01 5.7150914844350842e+00 2.6874216491211826e+00 1.4057111908578745e+00 1 3 2
1589 530 4 -8.1999999999999995e-01 3.1955939081118387e+00 2.1239758881650106e+00 8.6981750641133750e+00 3 -2 -1
6743 2248 4 -8.1999999999999995e-01 8.6211935424931045e+00 9.7293442338050298e+00 9.9020496861491658e+00 0 1 1
2022 674 3 4.0999999999999998e-01 7.0590085605267596e+00 1.6518098199054578e+00 1.6664654186108772e+00 1 3 2
1373 458 4 -8.1999999999999995e-01 7.1741152903503842e+00 1.0544668207173441e+01 6.9758923904332182e+00 -2 0 2
1017 339 3 4.0999999999999998e-01 3.1188771455339883e+00 4.4361313125015700e-01 7.8725169083515931e+00 3 2 2
630 210 3 4.0999999999999998e-01 9.7652331372544516e+00 3.5478650652387982e+00 9.6251646318938135e+00 3 -2 -2
1571 524 4 -8.1999999999999995e-01 2.9881677167442806e+00 9.0087679471094333e+00 1.8268731956180793e+00 2 -2 4
1728 576 3 4.0999999999999998e-01 3.4823549760976600e+00 2.2561829233971720e+00 2.1600594857928228e+00 -2 -2 0
3694 1232 3 4.0999999999999998e-01 9.5397632698118198e+00 8.8775714546646718e+00 6.0104355249642181e+00 3 1 0
1554 518 3 4.0999999999999998e-01 9.8987913578823346e+00 6.9042730822399863e+00 3.1046933797167493e+00 3 2 -1
3112 1038 3 4.0999999999999998e-01 7.8199647946600210e+00 2.6304939618678298e+00 8.7890091453462755e+00 -1 2 -1
2983 995 3 4.0999999999999998e-01 3.1755268572545576e+00 5.1298034624912940e+00 8.3575336603217387e+00 1 2 1
6258 2086 3 4.0999999999999998e-01 6.4504045978313274e+00 2.3080115503362033e+00 6.2596563025386436e+00 -4 -2 0
189 63 3 4.0999999999999998e-01 4.7259536460057952e+00 5.9112092881699869e+00 9.6245548128996683e-01 1 4 -7
1994 665 4 -8.1999999999999995e-01 1.2881509179826327e+00 5.0914083955154865e+00 3.8352373860854234e+00 -2 0 5
4168 1390 3 4.0999999999999998e-01 4.7424553089230921e+00 5.5180727176471951e+00 3.2496101590400204e+00 -2 -3 4
2794 932 3 4.0999999999999998e-01 4.6069818276436827e+00 3.2040068050498687e+00 3.9129131503777446e+00 -2 1 4
1655 552 4 -8.1999999999999995e-01 5.4919836420080932e+00 1.0461855982720028e+01 2.7126069461125089e+00 -2 -6 6
4977 1659 3 4.0999999999999998e-01 6.4779314423891146e+00 7.4175247123823231e+00 1.3473953612574912e+00 0 3 1
3375 1125 3 4.0999999999999998e-01 4.8983649930987727e-01 4.9611962768902435e-01 5.1159198480661052e+00 1 2 -2
3114 1038 3 4.0999999999999998e-01 9.1251937832735273e+00 1.7188286061294797e+00 8.4072253484281649e+00 -1 2 -1
1189 397 3 4.0999999999999998e-01 1.0979250084590391e+00 6.5417631178526428e+00 3.7820680273016722e+00 -1 0 -1
3991 1331 3 4.0999999999999998e-01 6.9136256015473094e+00 6.1630509419031174e+00 5.9254989498002528e+00 3 1 -1
2795 932 4 -8.1999999999999995e-01 4.6701960484019773e+00 2.1923643953832568e+00 3.9400698465512707e+00 -2 1 4
362 121 4 -8.1999999999999995e-01 6.0511945779291816e+00 9.1500574265928165e+00 4.8810677832643519e+00 -1 0 2
1190 397 4 -8.1999999999999995e-01 7.5878481512463380e-01 7.4889811964096795e+00 3.5870744058245143e+00 -1 0 -1
1726 576 3 4.0999999999999998e-01 3.8915351500652693e+00 3.2890847726840771e+00 1.1018263951754548e+00 -2 -2 0
3696 1232 3 4.0999999999999998e-01 8.8934763516980659e+00 7.4511299955343935e+00 6.4078095998199638e+00 3 1 0
3030 1010 3 4.0999999999999998e-01 3.2353872698997601e+00 9.8325883486507433e+00 6.9154232247023950e+00 7 -2 2
3467 1156 4 -8.1999999999999995e-01 8.2104072781402966e+00 8.3131210246935918e+00 8.1323071313550388e-01 1 2 0
1993 665 3 4.0999999999999998e-01 7.3930915181455925e-01 4.3882656550428178e+00 3.3127162057490209e+00 -2 0 5
188 63 4 -8.1999999999999995e-01 4.1684497178940108e+00 5.0513068532199732e+00 8.4924547728103494e-01 1 4 -7
3695 1232 4 -8.1999999999999995e-01 9.4075220872890739e+00 8.2523019461446427e+00 6.7953235979174149e+00 3 1 0
363 121 3 4.0999999999999998e-01 6.3506698162193356e+00 9.7851349184635019e+00 5.6896595257625249e+00 -1 0 2
1552 518 3 4.0999999999999998e-01 8.3384192384123033e+00 6.8412214578207102e+00 4.0376127772140720e+00 3 2 -1
361 121 3 4.0999999999999998e-01 5.9004190975203992e+00 9.7651508719262416e+00 4.0408033975121223e+00 -1 0 2
801 267 3 4.0999999999999998e-01 5.0411594720598112e+00 5.0966494109443019e+00 7.3319700065470661e+00 2 1 0
2796 932 3 4.0999999999999998e-01 4.8475478708112751e+00 1.8303562155273287e+00 4.8680083073624711e+00 -2 1 4
2419 807 3 4.0999999999999998e-01 9.1533939901235895e-01 1.0564990626745578e+01 2.1958464977696268e+00 1 -5 -3
799 267 3 4.0999999999999998e-01 6.3266248532496583e+00 4.2533045855387668e+00 6.8767718112267762e+00 2 1 0
4169 1390 4 -8.1999999999999995e-01 4.0352855916914869e+00 5.2261492619616812e+00 3.8688119052474965e+00 -2 -3 4
1590 530 3 4.0999999999999998e-01 3.2589989999216438e+00 2.9329725941986200e+00 8.0560987786517373e+00 3 -2 -1
3466 1156 3 4.0999999999999998e-01 8.0242353593343356e+00 9.3410934556605500e+00 9.9178249635243243e-01 1 2 0
3029 1010 4 -8.1999999999999995e-01 3.8245167088903402e+00 9.0499930382577283e+00 6.6700698515183001e+00 7 -2 2
1710 570 3 4.0999999999999998e-01 4.9152137798962299e+00 8.6576112289975065e+00 7.8843609847323304e+00 1 -1 0
1708 570 3 4.0999999999999998e-01 6.4251000578654942e+00 9.1589944263887766e+00 8.2481786536601120e+00 1 -1 0
3468 1156 3 4.0999999999999998e-01 8.8279730957270033e+00 7.9045425963983584e+00 1.5649785684869908e+00 1 2 0
3562 1188 3 4.0999999999999998e-01 9.8852227193724609e+00 2.0351204325255310e+00 4.6537766433385768e+00 2 -5 5
1572 524 3 4.0999999999999998e-01 3.1179857974565026e+00 8.7820421429938005e+00 8.1225764052240446e-01 2 -2 4
1375 459 3 4.0999999999999998e-01 6.7586615669778718e+00 5.6144312683137851e+00 8.7319407598789844e+00 -3 5 -5
3453 1151 3 4.0999999999999998e-01 8.5701510065752284e+00 5.1750362022094523e+00 2.8580701925003380e+00 4 2 -1
6526 2176 3 4.0999999999999998e-01 9.9680107689235360e+00 3.5461731252943829e+00 3.2346309444772161e+00 2 2 -3
1672 558 3 4.0999999999999998e-01 9.5607625361111737e+00 1.0174613541845273e+01 4.3750525673683622e+00 -4 -2 4
1372 458 3 4.0999999999999998e-01 8.0832047355216243e+00 1.0333302780225715e+01 6.5696092880472126e+00 -2 0 2
3411 1137 3 4.0999999999999998e-01 1.8484813360702552e+00 5.8208569025369075e+00 1.0405957857735419e+01 -2 3 -3
4604 1535 4 -8.1999999999999995e-01 2.5730427228598113e-01 2.2614387281567123e+00 2.3898166990628975e-01 4 1 3
4975 1659 3 4.0999999999999998e-01 5.1160995433825862e+00 8.0088787805282795e+00 5.3059882738556707e-01 0 3 1
1464 488 3 4.0999999999999998e-01 9.0831985006804192e+00 1.9473217874975440e-01 1.2414847613191824e+01 5 6 0
536 179 4 -8.1999999999999995e-01 6.8125024325658128e+00 3.3694876633840654e+00 1.5592552770719465e+01 -1 5 -4
5085 1695 3 4.0999999999999998e-01 1.0466663288184852e+01 8.0706948651744277e+00 1.7738590228216786e+01 -3 0 0
5084 1695 4 -8.1999999999999995e-01 9.6378661362004632e+00 8.4617339764281851e+00 1.8260945070422423e+01 -3 0 0
7208 2403 4 -8.1999999999999995e-01 1.0357692264465721e+01 7.7299838903729192e+00 1.2801560445383501e+01 1 -2 -1
6542 2181 4 -8.1999999999999995e-01 6.0346440697878858e+00 1.5434653252515933e+00 1.2122409631570678e+01 3 4 4
3557 1186 4 -8.1999999999999995e-01 4.8134714022668668e+00 5.3752261532534273e+00 1.4407282958723169e+01 -1 -5 -3
6809 2270 4 -8.1999999999999995e-01 7.9427846571274765e+00 7.5483621553875508e+00 1.1572042954618500e+01 4 -3 -2
78 26 3 4.0999999999999998e-01 1.4357015139313998e+00 4.4523181049849789e+00 2.0110959763695679e+01 -3 3 0
6734 2245 4 -8.1999999999999995e-01 2.5679128579162449e+00 7.0487764905921804e+00 1.7228834268240561e+01 2 7 1
6356 2119 4 -8.1999999999999995e-01 9.8542369411978541e+00 6.5662882663175131e+00 1.5238278409976639e+01 0 1 -1
5083 1695 3 4.0999999999999998e-01 9.1020587137812381e+00 7.7578065552899220e+00 1.8779444381372112e+01 -3 0 0
6541 2181 3 4.0999999999999998e-01 5.2752275083868918e+00 2.2073767395215946e+00 1.1991064065180838e+01 3 4 4
77 26 4 -8.1999999999999995e-01 5.5478640416868508e-01 3.9373393141748481e+00 1.9994271637326666e+01 -3 3 0
6171 2057 3 4.0999999999999998e-01 3.4934462806327282e-01 7.1608962862958006e+00 1.1707040706427547e+01 0 -1 2
3558 1186 3 4.0999999999999998e-01 5.2639393695819479e+00 4.6918150046586291e+00 1.5008751479509657e+01 -1 -5 -3
2725 909 3 4.0999999999999998e-01 7.3581893913438892e+00 8.4449958377403043e+00 1.4471521604259941e+01 1 -3 -3
673 225 3 4.0999999999999998e-01 6.6115627579771843e+00 3.0527530644086314e+00 1.7165417854426060e+01 2 -1 2
1044 348 3 4.0999999999999998e-01 4.2534858521738768e+00 7.2698099561512066e+00 1.7070966111129863e+01 3 2 1
328 110 3 4.0999999999999998e-01 1.9801705122147693e+00 3.0945276676246167e+00 1.1615972987152315e+01 2 3 -3
1248 416 3 4.0999999999999998e-01 1.0553962041461908e+00 5.0613686449289270e+00 1.2450465156377305e+01 0 1 0
6735 2245 3 4.0999999999999998e-01 1.7143870906985148e+00 7.3644040218694791e+00 1.7738742590276757e+01 2 7 1
1247 416 4 -8.1999999999999995e-01 1.4603621854518638e+00 6.0281488504544249e+00 1.2156080574474158e+01 0 1 0
5387 1796 4 -8.1999999999999995e-01 2.6066257686150336e+00 6.8579875496714839e+00 1.4491305191301494e+01 0 3 2
2727 909 3 4.0999999999999998e-01 6.2745272916642882e+00 7.2758442855314582e+00 1.5004583830678817e+01 1 -3 -3
7207 2403 3 4.0999999999999998e-01 1.0272510304049469e+01 7.1002744533080673e+00 1.3650190314822282e+01 1 -2 -1
89 30 4 -8.1999999999999995e-01 2.5379400140855584e+00 5.6252806797762203e+00 2.0457385732277629e+01 -1 2 -1
4869 1623 3 4.0999999999999998e-01 5.7309080126733019e+00 8.5930257330684583e+00 1.3286219879521560e+01 -2 2 -2
5882 1961 4 -8.1999999999999995e-01 7.1869335538819001e+00 5.7354636559107250e+00 1.6629773926606859e+01 -1 0 2
3165 1055 3 4.0999999999999998e-01 6.2997840238556047e-01 8.4249171539728511e+00 1.9543790193395115e+01 2 -2 -1
6240 2080 3 4.0999999999999998e-01 5.7566448512531814e+00 8.0599349953409192e+00 2.0145520016515331e+01 6 -1 0
6042 2014 3 4.0999999999999998e-01 5.2943669651075735e+00 3.8561365296420353e+00 1.9165874139790656e+01 2 -6 0
124 42 3 4.0999999999999998e-01 4.8239786916169995e+00 1.0410648025820176e+01 1.6736968433186377e+01 -3 -5 0
125 42 4 -8.1999999999999995e-01 5.7063841312725136e+00 1.0278009165222722e+01 1.7283943303020269e+01 -3 -5 0
4634 1545 4 -8.1999999999999995e-01 1.5104739850678675e+00 4.2190862334488095e+00 1.7260161298990393e+01 4 -1 1
1992 664 3 4.0999999999999998e-01 7.6978197872789611e+00 1.7878661663813586e+00 1.1942072446972020e+01 1 1 -4
6355 2119 3 4.0999999999999998e-01 1.0253003411523089e+01 5.6084726171153321e+00 1.5180631179541360e+01 0 1 -1
88 30 3 4.0999999999999998e-01 3.5179552927114837e+00 5.3937478984723777e+00 2.0197503263998541e+01 -1 2 -1
6808 2270 3 4.0999999999999998e-01 7.5346323967017685e+00 6.8792907852831808e+00 1.0864749611007916e+01 4 -3 -2
1313 438 4 -8.1999999999999995e-01 7.6594010576882898e-01 3.6574054401864631e+00 1.3216606011094227e+01 -2 -5 0
4868 1623 4 -8.1999999999999995e-01 4.9691103997389110e+00 9.3301920958474653e+00 1.3073451981735730e+01 -2 2 -2
2485 829 3 4.0999999999999998e-01 8.2699077682094071e+00 5.7379835927935563e+00 1.7878865000515251e+01 2 3 -2
3814 1272 3 4.0999999999999998e-01 7.1225787227499788e+00 6.4727706520091575e+00 1.9575543203529488e+01 -3 -2 -2
6239 2080 4 -8.1999999999999995e-01 5.2300554441161342e+00 8.9090996725942695e+00 2.0344174787164853e+01 6 -1 0
4591 1531 3 4.0999999999999998e-01 8.9226116248664455e-01 9.0084104923243657e+00 1.1051604376696647e+01 6 -1 -1
6733 2245 3 4.0999999999999998e-01 2.4123369528812821e+00 6.0689303779489761e+00 1.7004700161828723e+01 2 7 1
1043 348 4 -8.1999999999999995e-01 5.2254567133345136e+00 7.5898061330209625e+00 1.6751585733778832e+01 3 2 1
5881 1961 3 4.0999999999999998e-01 6.3244713825677401e+00 6.3021453427523788e+00 1.6660703499427466e+01 -1 0 2
3823 1275 3 4.0999999999999998e-01 3.7785019779957736e+00 2.5638035257043286e+00 1.5180289875411553e+01 2 4 -1
3825 1275 3 4.0999999999999998e-01 4.5710429652423317e+00 1.2026124902571496e+00 1.4659552980748144e+01 2 4 -1
674 225 4 -8.1999999999999995e-01 6.3369373011449674e+00 2.9889446866575087e+00 1.8195958944925302e+01 2 -1 2
5868 1956 3 4.0999999999999998e-01 2.1647785455519331e+00 9.8620914844695946e+00 2.0322997161170353e+01 1 1 0
3556 1186 3 4.0999999999999998e-01 5.4331798868749726e+00 5.6718947454935931e+00 1.3574425164580875e+01 -1 -5 -3
3824 1275 4 -8.1999999999999995e-01 4.5772906644123053e+00 2.1675869890631780e+00 1.4646622993482104e+01 2 4 -1
4142 1381 4 -8.1999999999999995e-01 8.7240525193338723e+00 3.3569036989979186e+00 1.9668827322971907e+01 3 5 -3
535 179 3 4.0999999999999998e-01 7.7783812015018929e+00 3.1221088933495178e+00 1.5177381804107537e+01 -1 5 -4
5867 1956 4 -8.1999999999999995e-01 1.5730514274431862e+00 9.0181630438908371e+00 2.0723573772437092e+01 1 1 0
2506 836 3 4.0999999999999998e-01 8.5027091349948538e+00 9.1669615105811246e+00 1.6917536661460527e+01 1 2 4
4635 1545 3 4.0999999999999998e-01 5.0502680041174697e-01 3.9600275347962066e+00 1.7027746648036342e+01 4 -1 1
6543 2181 3 4.0999999999999998e-01 5.5064996000194553e+00 6.9357851368653256e-01 1.2411809093749797e+01 3 4 4
6930 2310 3 4.0999999999999998e-01 1.0311611191878256e+01 5.5858433718579725e-01 1.8564085044581173e+01 0 -1 -6
329 110 4 -8.1999999999999995e-01 2.8361113294149933e+00 2.5709143943908788e+00 1.1669226005986236e+01 2 3 -3
5388 1796 3 4.0999999999999998e-01 3.5048239872537623e+00 6.4300172041065782e+00 1.4239733690048810e+01 0 3 2
2164 722 3 4.0999999999999998e-01 3.1468414479436189e+00 9.5796246200317425e-01 1.1280976798677484e+01 0 0 -4
3815 1272 4 -8.1999999999999995e-01 6.9343714205024716e+00 6.6826093412385026e+00 2.0580041222673565e+01 -3 -2 -2
6041 2014 4 -8.1999999999999995e-01 5.0201283935062335e+00 4.4015749317741246e+00 2.0007557790010836e+01 2 -6 0
6492 2164 3 4.0999999999999998e-01 1.5099413547387293e+00 1.5275375407165774e+00 1.5061452035912151e+01 2 2 0
2486 829 4 -8.1999999999999995e-01 8.7895839051851645e+00 5.8783570053027390e+00 1.8706039068483566e+01 2 3 -2
1246 416 3 4.0999999999999998e-01 1.8644236402171150e+00 6.4414179081296039e+00 1.3058021234378224e+01 0 1 0
6491 2164 4 -8.1999999999999995e-01 1.9344127653882104e+00 2.4223222991535969e+00 1.5195107495948571e+01 2 2 0
4141 1381 3 4.0999999999999998e-01 8.8826960743037766e+00 4.3357689530015389e+00 1.9808741469697448e+01 3 5 -3
2507 836 4 -8.1999999999999995e-01 7.9381619793474760e+00 9.6420814285242251e+00 1.6197030302571719e+01 1 2 4
4867 1623 3 4.0999999999999998e-01 4.4371400333174211e+00 9.3930005455421615e+00 1.3935935009998033e+01 -2 2 -2
7224 2408 3 4.0999999999999998e-01 1.0236430082583729e+01 2.8281454436752775e+00 1.8529892776772080e+01 3 0 2
4143 1381 3 4.0999999999999998e-01 8.4503822034061429e+00 2.8311356085193466e+00 2.0532523357730561e+01 3 5 -3
6040 2014 3 4.0999999999999998e-01 5.7464142105007658e+00 5.0314627622122581e+00 2.0174175901451129e+01 2 -6 0
4633 1545 3 4.0999999999999998e-01 1.7648385628381251e+00 3.8443996748653939e+00 1.8187626220222143e+01 4 -1 1
1308 436 3 4.0999999999999998e-01 5.9159325117481592e+00 1.2647655072175399e+00 1.7732656713575320e+01 2 3 -1
5883 1961 3 4.0999999999999998e-01 6.9641981190545046e+00 4.7572043935000874e+00 1.6408575823676838e+01 -1 0 2
2508 836 3 4.0999999999999998e-01 7.0094144961123233e+00 9.7572533146901410e+00 1.6655735495037248e+01 1 2 4
6357 2119 3 4.0999999999999998e-01 8.9371372496486270e+00 6.5445636658072734e+00 1.5690962467356199e+01 0 1 -1
5439 1813 3 4.0999999999999998e-01 1.6424056035017938e+00 8.2607323162658073e+00 1.4767142171906615e+01 2 -4 2
537 179 3 4.0999999999999998e-01 6.1010042389493266e+00 2.8751670352512213e+00 1.5022554465852851e+01 -1 5 -4
6810 2270 3 4.0999999999999998e-01 7.5070481968576468e+00 7.5389069665163690e+00 1.2487398858828485e+01 4 -3 -2
675 225 3 4.0999999999999998e-01 7.2022382220832490e+00 3.2265783111910262e+00 1.8693304470825513e+01 2 -1 2
1735 579 3 4.0999999999999998e-01 4.3679639932115091e+00 8.3227623845793719e+00 1.1543032170248399e+01 1 0 -1
5386 1796 3 4.0999999999999998e-01 2.6283481849069634e+00 6.9196191667728613e+00 1.5560663763716391e+01 0 3 2
6490 2164 3 4.0999999999999998e-01 1.7700144017412163e+00 2.7556623977618333e+00 1.6161672966762318e+01 2 2 0
7209 2403 3 4.0999999999999998e-01 9.4041376455961618e+00 7.6594640626650037e+00 1.2302654823717427e+01 1 -2 -1
1042 348 3 4.0999999999999998e-01 5.4869846453404847e+00 8.3642159914576357e+00 1.7393671981979622e+01 3 2 1
2726 909 4 -8.1999999999999995e-01 6.7744805056641733e+00 7.6079350442001772e+00 1.4184509134198633e+01 1 -3 -3
1991 664 4 -8.1999999999999995e-01 8.7101398100116771e+00 1.7934198486708344e+00 1.2007603248148737e+01 1 1 -4
1314 438 3 4.0999999999999998e-01 1.1737570550900316e+00 3.1410108233431004e+00 1.4020808652896015e+01 -2 -5 0
2487 829 3 4.0999999999999998e-01 9.8225485178278458e+00 5.7997671067422152e+00 1.8516291562746076e+01 2 3 -2
1307 436 4 -8.1999999999999995e-01 5.8704702509655045e+00 2.3398322141785111e-01 1.7730195721228316e+01 2 3 -1
330 110 3 4.0999999999999998e-01 3.1023482077498215e+00 2.8168127203101458e+00 1.2632370021267349e+01 2 3 -3
4944 1648 3 4.0999999999999998e-01 9.3482612573159898e+00 2.2245646524909968e+00 1.3755624357451367e+01 5 2 -1
4592 1531 4 -8.1999999999999995e-01 1.5787560389185036e+00 9.7181700621606346e+00 1.0685810153760672e+01 6 -1 -1
4943 1648 4 -8.1999999999999995e-01 9.3605277023295361e+00 2.2784910931273492e+00 1.4785309912643632e+01 5 2 -1
4593 1531 3 4.0999999999999998e-01 2.4492339108641570e+00 9.1698691673841406e+00 1.0589319085172882e+01 6 -1 -1
6168 2056 3 4.0999999999999998e-01 1.0511236097766108e+01 3.5396083275897054e+00 1.4824261930442415e+01 -1 2 -2
5438 1813 4 -8.1999999999999995e-01 1.1444383258486979e+00 9.1353212333462341e+00 1.4658594687332423e+01 2 -4 2
4942 1648 3 4.0999999999999998e-01 9.6202165742227503e+00 1.3866984713838775e+00 1.5214981936370554e+01 5 2 -1
1938 646 3 4.0999999999999998e-01 2.3328304716741317e+00 9.8876991739978592e+00 1.5761228832117826e+01 2 -1 0
451 151 3 4.0999999999999998e-01 9.6899975524467763e+00 9.9154729082792556e+00 1.9098769050710715e+01 2 2 1
1990 664 3 4.0999999999999998e-01 9.0202339815070527e+00 2.0807391587191568e+00 1.1050885958219354e+01 1 1 -4
1937 646 4 -8.1999999999999995e-01 3.1349052084440809e+00 1.0532710219724111e+01 1.5951716659663873e+01 2 -1 0
3867 1289 3 4.0999999999999998e-01 5.4670905781807546e+00 1.0554252905647814e+01 1.9807485270266987e+01 3 -4 -1
3164 1055 4 -8.1999999999999995e-01 1.9557957750401114e-01 7.9938368534129722e+00 1.8716030033486753e+01 2 -2 -1
6742 2248 3 4.0999999999999998e-01 8.5120661772256749e+00 8.9841698523261009e+00 1.0616551814664367e+01 0 1 1
1736 579 4 -8.1999999999999995e-01 3.8777777182201190e+00 8.1614992820520769e+00 1.0645771434841597e+01 1 0 -1
90 30 3 4.0999999999999998e-01 2.5665883326450856e+00 6.5056297436511796e+00 2.0904121748609029e+01 -1 2 -1
1340 447 4 -8.1999999999999995e-01 4.9434064238399706e+00 7.0834543801427925e+00 2.6894732396199341e+01 1 -1 1
6819 2273 3 4.0999999999999998e-01 6.0111778243523188e+00 8.5076392941973609e+00 2.9901831836450206e+01 -3 -1 1
3813 1271 3 4.0999999999999998e-01 8.7942934291298549e+00 4.0711329753438168e+00 3.0440559142444233e+01 0 -3 3
70 24 3 4.0999999999999998e-01 2.0386126385996883e+00 5.2047185301571330e-01 2.9048507693286698e+01 1 -3 2
7240 2414 3 4.0999999999999998e-01 6.1555678520832835e-01 8.4397605867009897e+00 2.7509756563909857e+01 2 0 2
5639 1880 4 -8.1999999999999995e-01 2.7631247316142802e+00 9.3639242627485491e+00 2.9790880231836052e+01 0 2 -2
3855 1285 3 4.0999999999999998e-01 4.2933765026875772e+00 5.8057867997482315e+00 2.9496932736572578e+01 1 2 3
3176 1059 4 -8.1999999999999995e-01 7.3679039828535586e+00 2.5745978511775269e+00 2.8440889437155445e+01 1 -2 -4
2207 736 4 -8.1999999999999995e-01 1.7904773132011238e+00 5.5672494035051754e+00 2.7582849678487346e+01 3 4 3
2334 778 3 4.0999999999999998e-01 5.7746745501505687e+00 5.0196131179924848e+00 2.9947110216392204e+01 2 3 -1
3551 1184 4 -8.1999999999999995e-01 2.9181824282491218e+00 5.9410523584660853e+00 2.3802166546092689e+01 2 1 3
33 11 3 4.0999999999999998e-01 2.2939916937107090e+00 4.6394564054883297e-01 2.5421690509851391e+01 -2 3 1
5638 1880 3 4.0999999999999998e-01 3.7509671409300083e+00 9.2102856043872663e+00 2.9351255512269308e+01 0 2 -2
3729 1243 3 4.0999999999999998e-01 7.5009488554765769e+00 9.3738019045657683e+00 3.0993552896649060e+01 -3 4 -1
6837 2279 3 4.0999999999999998e-01 6.7733633961611250e+00 2.6631962108574054e+00 2.2225902952808344e+01 -2 1 2
4878 1626 3 4.0999999999999998e-01 7.0243003823749195e+00 9.4591171049650473e+00 2.6536021352347493e+01 2 2 -2
1663 555 3 4.0999999999999998e-01 8.7449804315203004e+00 6.3208649570102953e+00 2.9398931967434574e+01 0 -4 -1
4336 1446 3 4.0999999999999998e-01 9.5865437690345576e+00 4.0041415381990078e+00 2.5868224006164326e+01 2 3 1
3793 1265 3 4.0999999999999998e-01 9.9691502937308147e+00 8.0181644493023985e+00 2.2238805260392120e+01 0 3 0
4296 1432 3 4.0999999999999998e-01 5.7177476282345392e+00 4.3683638954929815e+00 2.4968438062702695e+01 3 0 3
3812 1271 4 -8.1999999999999995e-01 8.7007568223471239e+00 3.1461568000061746e+00 3.0944811343424814e+01 0 -3 3
5502 1834 3 4.0999999999999998e-01 6.5097976758768734e+00 6.3139153950963118e+00 2.3881359620892699e+01 0 -4 1
1966 656 3 4.0999999999999998e-01 9.2879098313217288e+00 7.9621171278497966e+00 2.6024170099962902e+01 6 -2 3
4572 1524 3 4.0999999999999998e-01 5.1503886103612295e+00 7.7445928668107182e+00 2.2952724041123858e+01 -1 0 -1
3552 1184 3 4.0999999999999998e-01 3.5878156038415820e+00 5.8300797084926197e+00 2.4604387204700487e+01 2 1 3
6238 2080 3 4.0999999999999998e-01 4.9556532866749681e+00 8.7271729656670320e+00 2.1279964958575341e+01 6 -1 0
1846 616 3 4.0999999999999998e-01 5.0698398751590918e+00 1.0160463383270377e+00 2.7071320696173885e+01 5 1 -1
4571 1524 4 -8.1999999999999995e-01 4.1507324282759575e+00 7.9863656063417894e+00 2.2790802449535473e+01 -1 0 -1
2869 957 3 4.0999999999999998e-01 1.1667254813506611e+00 7.6391828037257827e+00 2.3389412916547315e+01 1 2 0
2871 957 3 4.0999999999999998e-01 1.9552821737111878e+00 9.1479782696075986e+00 2.3674815711873837e+01 1 2 0
1665 555 3 4.0999999999999998e-01 9.4687367163661982e+00 6.4520447076728695e+00 3.0847554457601166e+01 0 -4 -1
3853 1285 3 4.0999999999999998e-01 2.7426015598620541e+00 5.0938130924328426e+00 2.9450538540401787e+01 1 2 3
3177 1059 3 4.0999999999999998e-01 7.7855883448375405e+00 2.4762004597591591e+00 2.9295302886938050e+01 1 -2 -4
2210 737 4 -8.1999999999999995e-01 5.1050376085424736e+00 2.8755484270807350e+00 2.2244462956760870e+01 1 1 0
4295 1432 4 -8.1999999999999995e-01 6.2995563790804123e+00 4.4531213740219471e+00 2.4123802728034246e+01 3 0 3
4337 1446 4 -8.1999999999999995e-01 9.0336186220669497e+00 4.0157570179466333e+00 2.4997048819519915e+01 2 3 1
6214 2072 3 4.0999999999999998e-01 8.8373349518945723e+00 8.6406440239038873e-01 2.6285409135247470e+01 -1 -1 -1
3854 1285 4 -8.1999999999999995e-01 3.4001150086830889e+00 5.6856968763226119e+00 2.9966251174344098e+01 1 2 3
7241 2414 4 -8.1999999999999995e-01 1.6948847506473084e+00 8.3814383552894824e+00 2.7497931056217951e+01 2 0 2
1471 491 3 4.0999999999999998e-01 3.8661628429932553e+00 5.8511627143394263e-01 2.4041125832835711e+01 -4 -2 0
1196 399 4 -8.1999999999999995e-01 9.7952990729748812e+00 8.5548403313302117e+00 2.9173975850451654e+01 6 0 -5
4570 1524 3 4.0999999999999998e-01 3.5826903018341962e+00 7.2776740959404034e+00 2.3243228684326528e+01 -1 0 -1
6349 2117 3 4.0999999999999998e-01 5.7828794037906028e-01 2.7400671880935774e+00 2.6433250346689068e+01 -3 -2 4
31 11 3 4.0999999999999998e-01 1.1152178015359107e+00 5.4188216589964711e-01 2.4281787818709549e+01 -2 3 1
32 11 4 -8.1999999999999995e-01 2.0259486240083446e+00 9.7105151222945374e-01 2.4555363528551428e+01 -2 3 1
6835 2279 3 4.0999999999999998e-01 8.2527046215038045e+00 2.5950005814319899e+00 2.3009683595542178e+01 -2 1 2
932 311 4 -8.1999999999999995e-01 5.5125044050416472e+00 6.2591597401694465e-01 3.1041021213644704e+01 -2 4 0
5863 1955 3 4.0999999999999998e-01 6.2649456731916136e+00 6.2452980751500293e+00 3.1202764874946094e+01 -1 2 -1
3175 1059 3 4.0999999999999998e-01 8.0144011569628759e+00 2.0389886814605003e+00 2.7845006624773188e+01 1 -2 -4