LAMMPS data file via write_data, version 5 Jun 2019, timestep = 16500000

7349 atoms
5 atom types
4899 bonds
2 bond types
2451 angles
2 angle types
1 impropers
1 improper types

1.5519297081455363e-01 4.1845807029189409e+01 xlo xhi
1.5469297081455124e-01 4.1845307029189406e+01 ylo yhi
1.5469297081455124e-01 4.1845307029189406e+01 zlo zhi

#Masses
#
#1 12.01
#2 40.08
#3 1.01
#4 16
#5 16
#
#Bond Coeffs # harmonic
#
#1 20.4246 1.3042
#2 22.965 1.012

Atoms # full

5869 1957 3 4.0999999999999998e-01 3.8786490246228063e+00 2.9590446859715009e+00 1.4413409621938347e+00 0 -3 -1
1012 338 3 4.0999999999999998e-01 5.1992265220840013e+00 4.0509016790862766e+00 7.7134260541296822e+00 2 3 1
1054 352 3 4.0999999999999998e-01 9.7258358772370475e+00 3.9825944373863433e+00 3.3325277319040589e+00 2 -3 -2
2596 866 3 4.0999999999999998e-01 6.4522236418214911e+00 9.3006009467116684e+00 9.7833622145715271e+00 -1 0 -1
1056 352 3 4.0999999999999998e-01 9.1368060586010014e+00 4.4924321471024218e+00 1.8450460582758890e+00 2 -3 -2
2996 999 4 -8.1999999999999995e-01 1.2903317904803413e+00 9.5737782282162076e+00 7.2475358049807665e+00 -1 3 -2
6008 2003 4 -8.1999999999999995e-01 2.4549685199395288e+00 7.1029669670457700e+00 9.7328243376324846e+00 1 -1 0
3316 1106 3 4.0999999999999998e-01 2.6512782309538339e+00 4.9047068908692850e+00 2.7114672683892027e+00 2 3 3
3807 1269 3 4.0999999999999998e-01 5.4797279680178077e+00 8.0459902173252082e+00 8.5620506360747388e+00 -1 -2 -1
978 326 3 4.0999999999999998e-01 4.2658878428157729e+00 8.2591575369488268e+00 1.3009137823048327e+00 2 0 1
6255 2085 3 4.0999999999999998e-01 9.1261928603572624e+00 2.1480874182841397e-01 1.0170237756635643e+01 -2 1 0
5351 1784 4 -8.1999999999999995e-01 8.6738071437011488e+00 8.1268850365861116e+00 8.3466773074366607e+00 1 2 0
1861 621 3 4.0999999999999998e-01 7.6086975214125663e-01 7.7757062740487148e+00 3.5405427237990086e+00 -4 0 1
6007 2003 3 4.0999999999999998e-01 1.9427090183470503e+00 7.9197844514765166e+00 1.0161290840881984e+01 1 -1 0
2997 999 3 4.0999999999999998e-01 1.2215462258727789e+00 9.3684186513426582e+00 8.2555834752745199e+00 -1 3 -2
362 121 4 -8.1999999999999995e-01 7.5956064661445613e+00 5.6241494594968282e+00 8.4633367737168239e+00 -1 0 1
2995 999 3 4.0999999999999998e-01 6.9064470466194505e-01 8.8748287035756626e+00 6.8176972874433757e+00 -1 3 -2
3882 1294 3 4.0999999999999998e-01 1.0358049453056333e+01 5.7473462691381556e+00 8.1587845989906977e+00 2 -1 1
1014 338 3 4.0999999999999998e-01 4.7924574652965894e+00 2.7033195971777459e+00 6.8709612513412166e+00 2 3 1
4212 1404 3 4.0999999999999998e-01 6.0537552780473973e+00 6.3232544412805360e+00 2.5042924166271536e+00 2 -2 2
2339 780 4 -8.1999999999999995e-01 9.0719078664287558e+00 7.2834306536310123e-01 7.6216821418099219e+00 2 2 -1
5544 1848 3 4.0999999999999998e-01 4.8223046435645420e+00 8.2545469804001979e+00 5.6928799489577848e+00 -2 2 -2
2597 866 4 -8.1999999999999995e-01 6.2872497340659530e+00 9.9127579449600933e+00 8.9968860359794665e+00 -1 0 -1
363 121 3 4.0999999999999998e-01 6.9808771280231783e+00 5.1481595971851259e+00 9.1007780851352535e+00 -1 0 1
5352 1784 3 4.0999999999999998e-01 7.8855957022567367e+00 8.7565397996667063e+00 8.6068235011623457e+00 1 2 0
6247 2083 3 4.0999999999999998e-01 4.7952275369397812e+00 4.7838822680297346e+00 1.0325178769709451e+01 -1 -1 2
1519 507 3 4.0999999999999998e-01 2.8222532590384120e+00 2.3282423315741125e+00 4.4560269251593985e+00 0 1 1
5092 1698 3 4.0999999999999998e-01 2.1806211764598946e+00 5.8652152792852776e+00 4.0082902971084272e-01 7 4 -3
1492 498 3 4.0999999999999998e-01 6.6627940187749113e+00 1.8057411498824318e+00 4.6040874109869954e+00 -3 2 -2
3317 1106 4 -8.1999999999999995e-01 2.8284849616223924e+00 5.2776737770452167e+00 1.8634850842162571e+00 2 3 3
1420 474 3 4.0999999999999998e-01 9.5245602392624384e+00 1.8182357505663427e+00 1.5426948251222485e+00 1 1 1
757 253 3 4.0999999999999998e-01 4.4020032722073305e-01 3.2793159143063590e+00 2.8095287638879292e+00 3 2 3
1520 507 4 -8.1999999999999995e-01 3.5095287428998390e+00 1.6143607480152080e+00 4.7178618804850982e+00 0 1 1
1811 604 4 -8.1999999999999995e-01 2.8552448239746733e+00 5.1914630482375044e+00 5.7192708069693836e+00 2 4 5
5870 1957 4 -8.1999999999999995e-01 4.8814846379368761e+00 3.2352483903059732e+00 1.5004304275511777e+00 0 -3 -1
5444 1815 4 -8.1999999999999995e-01 9.2584004010764485e+00 8.2175580948663054e+00 1.5624753636663358e+00 3 0 -1
7221 2407 3 4.0999999999999998e-01 2.6867411579799905e-01 9.2120530238837812e+00 1.0326291640885684e+01 0 -3 -2
3806 1269 4 -8.1999999999999995e-01 5.0908700023574855e+00 7.3586866879266744e+00 9.2649220929977147e+00 -1 -2 -1
5713 1905 3 4.0999999999999998e-01 6.8977181316557514e+00 6.5421346478200153e+00 4.4524669669281991e+00 1 0 3
6739 2247 3 4.0999999999999998e-01 1.0301525784849845e+01 1.9030301730164765e+00 8.0852515821784827e+00 1 6 1
2431 811 3 4.0999999999999998e-01 5.4819621413569344e+00 1.0601084254383140e+00 8.3301947135328049e+00 0 -4 -3
3483 1161 3 4.0999999999999998e-01 1.9614978444962419e+00 4.3795349137002226e+00 4.7758437203444464e+00 1 -1 -1
2338 780 3 4.0999999999999998e-01 8.1333299332075288e+00 2.7495271357549061e-01 7.6830616573796009e+00 2 2 -1
2598 866 3 4.0999999999999998e-01 5.3450692268525692e+00 1.0391167306442890e+01 9.0783157328899584e+00 -1 0 -1
5406 1802 3 4.0999999999999998e-01 7.0036961936333091e+00 5.5395274141571429e+00 6.8678583451739543e+00 -1 0 2
977 326 4 -8.1999999999999995e-01 3.2567268827057547e+00 8.2126621687775181e+00 1.1498030090494775e+00 2 0 1
1464 488 3 4.0999999999999998e-01 1.2020631088465670e+00 3.5405340460120223e+00 7.7755923242173983e+00 5 5 1
6688 2230 3 4.0999999999999998e-01 1.8757055928532755e+00 1.1299639022535843e+00 1.4092595102396428e+00 4 1 -4
6471 2157 3 4.0999999999999998e-01 6.9203740537794918e+00 9.4581961735916824e+00 1.3400940292697612e+00 4 1 1
5543 1848 4 -8.1999999999999995e-01 4.5504526832959149e+00 7.3102573082977615e+00 5.8051254424483805e+00 -2 2 -2
5715 1905 3 4.0999999999999998e-01 7.9803521881685366e+00 6.1056997009539948e+00 3.2889502915398801e+00 1 0 3
6254 2085 4 -8.1999999999999995e-01 8.7107378856080206e+00 1.1607000160443632e+00 1.0336081073927483e+01 -2 1 0
1144 382 3 4.0999999999999998e-01 1.0483933776817072e+01 6.1782485329575731e+00 3.3822004682010358e+00 2 4 -5
2949 983 3 4.0999999999999998e-01 5.6650891874355125e+00 2.0823734997370456e+00 5.8695238602605382e-01 -4 0 4
7245 2415 3 4.0999999999999998e-01 4.8799037908268801e+00 1.0142281221227154e+01 6.5403160524439894e+00 2 0 -3
2433 811 3 4.0999999999999998e-01 3.9186362396214349e+00 5.0937707267161314e-01 7.6121531918368168e+00 0 -4 -3
1274 425 4 -8.1999999999999995e-01 1.0325222138020221e+01 3.2402669769339729e+00 4.3458053476381342e-01 5 3 2
3318 1106 3 4.0999999999999998e-01 3.8809176825239264e+00 5.4748771997393968e+00 1.8546148223319221e+00 2 3 3
1224 408 3 4.0999999999999998e-01 7.8881148277395345e+00 1.9258194143969019e+00 6.4308586936952228e+00 0 2 -3
6429 2143 3 4.0999999999999998e-01 4.9880100822654070e+00 1.0219380855816022e+01 2.8854186482828665e+00 -2 2 0
1812 604 3 4.0999999999999998e-01 3.2258695836317037e+00 6.1707001826668950e+00 5.8720289140950825e+00 2 4 5
1494 498 3 4.0999999999999998e-01 6.5632116510275944e+00 1.9541109167603770e+00 2.9345230893361807e+00 -3 2 -2
2779 927 3 4.0999999999999998e-01 9.2807486753833430e+00 6.9634288645076303e+00 6.3166754074344500e-01 -3 0 -1
4211 1404 4 -8.1999999999999995e-01 5.3103537930111679e+00 5.8963233127694110e+00 1.8241134004402209e+00 2 -2 2
3746 1249 4 -8.1999999999999995e-01 5.7337738256453967e+00 1.6536929383484438e+00 1.0260673464910649e+01 2 5 1
1810 604 3 4.0999999999999998e-01 3.6682936798431554e+00 4.5213783865494177e+00 5.8270416632399948e+00 2 4 5
976 326 3 4.0999999999999998e-01 2.8451328855834661e+00 7.6409748280975833e+00 1.8655340220487044e+00 2 0 1
3819 1273 3 4.0999999999999998e-01 9.6497705749021527e+00 1.0160813027931320e+01 3.7751960710242121e+00 -1 -1 1
5871 1957 3 4.0999999999999998e-01 5.0008894855094619e+00 4.1638237415661017e+00 1.1808303040050629e+00 0 -3 -1
3745 1249 3 4.0999999999999998e-01 5.6912411159998983e+00 6.2947714342612271e-01 1.0027313597236498e+01 2 5 1
7244 2415 4 -8.1999999999999995e-01 5.4660870055491984e+00 9.7650967626484828e+00 5.8290220082934701e+00 2 0 -3
3481 1161 3 4.0999999999999998e-01 5.1630003744769160e-01 3.3697720201468742e+00 4.7395853928066618e+00 1 -1 -1
1463 488 4 -8.1999999999999995e-01 9.9167394834219780e-01 2.5240053178640984e+00 7.5771779722081183e+00 5 5 1
6253 2085 3 4.0999999999999998e-01 8.2112359025346606e+00 1.4898326771273933e+00 9.5592077361995038e+00 -2 1 0
4456 1486 3 4.0999999999999998e-01 9.8359649333758981e+00 7.4437414763421907e+00 6.9543987505158418e+00 4 6 -5
1863 621 3 4.0999999999999998e-01 1.9920843736136102e+00 7.2512945570982996e+00 4.4195754408806884e+00 -4 0 1
1493 498 4 -8.1999999999999995e-01 6.1650022484764166e+00 1.4748180157032005e+00 3.7588222581900999e+00 -3 2 -2
6469 2157 3 4.0999999999999998e-01 6.7637359383102309e+00 8.5663409167926492e+00 2.7038399111934606e+00 4 1 1
5350 1784 3 4.0999999999999998e-01 8.3341599555149983e+00 7.1672689601284185e+00 8.3089158779508185e+00 1 2 0
1055 352 4 -8.1999999999999995e-01 9.4184124768616648e+00 4.7947419265815396e+00 2.7907043931586348e+00 2 -3 -2
4210 1404 3 4.0999999999999998e-01 5.3690982076852958e+00 6.2953272881482283e+00 8.4677769454985652e-01 2 -2 2
5404 1802 3 4.0999999999999998e-01 6.5375300658792845e+00 4.4582374029513590e+00 5.7979540962228056e+00 -1 0 2
6470 2157 4 -8.1999999999999995e-01 6.3099945800483290e+00 9.3142164233953526e+00 2.1560595250280712e+00 4 1 1
3805 1269 3 4.0999999999999998e-01 5.4992835730492562e+00 6.4695357536985370e+00 9.0310336478846249e+00 -1 -2 -1
1846 616 3 4.0999999999999998e-01 1.7131137350594017e+00 8.8559366289869845e-01 7.2063791784774525e+00 5 1 -2
1421 474 4 -8.1999999999999995e-01 9.0261507229180111e+00 1.2948356791602753e+00 2.2344635168303122e+00 1 1 1
1223 408 4 -8.1999999999999995e-01 7.6522985987693533e+00 2.5843215458784341e+00 5.7080983611782159e+00 0 2 -3
1013 338 4 -8.1999999999999995e-01 4.8725139249796738e+00 3.7184205361069500e+00 6.7911891640727928e+00 2 3 1
4326 1442 3 4.0999999999999998e-01 1.8101806219858083e+00 5.2775130447297078e+00 7.0224212812502547e+00 2 -3 -3
1521 507 3 4.0999999999999998e-01 4.4714754889235575e+00 1.9280013101176627e+00 4.4045313379394369e+00 0 1 1
1222 408 3 4.0999999999999998e-01 8.5762487559994032e+00 2.8232840222860163e+00 5.3424069766149325e+00 0 2 -3
5405 1802 4 -8.1999999999999995e-01 6.7652542729080611e+00 5.4660839123555212e+00 5.8673499879869695e+00 -1 0 2
2432 811 4 -8.1999999999999995e-01 4.8555279281202264e+00 8.8584789172962419e-01 7.5288954486778410e+00 0 -4 -3
5714 1905 4 -8.1999999999999995e-01 7.1714214005261221e+00 6.6789418432255800e+00 3.5067143314426086e+00 1 0 3
4324 1442 3 4.0999999999999998e-01 1.7703176163071832e+00 5.9703903309030686e+00 8.5346843998089152e+00 2 -3 -3
3881 1294 4 -8.1999999999999995e-01 1.0085711046451046e+01 5.1573471106747286e+00 8.9307395524691771e+00 2 -1 1
5445 1815 3 4.0999999999999998e-01 9.4791114498335549e+00 8.7522936256038175e+00 2.3716710409938631e+00 3 0 -1
5443 1815 3 4.0999999999999998e-01 8.8831211937880212e+00 8.8757139772718574e+00 8.3713953745672665e-01 3 0 -1
361 121 3 4.0999999999999998e-01 8.5307986461000258e+00 5.4192802233647432e+00 8.6806196063321615e+00 -1 0 1
4325 1442 4 -8.1999999999999995e-01 1.3913703478422412e+00 5.1840345444722766e+00 7.9728626706021641e+00 2 -3 -3
5542 1848 3 4.0999999999999998e-01 5.3865264027893307e+00 6.7396541918444450e+00 5.6741797777849143e+00 -2 2 -2
1462 488 3 4.0999999999999998e-01 4.2074071841606914e-01 2.6730744678757157e+00 6.7307008202745182e+00 5 5 1
3482 1161 4 -8.1999999999999995e-01 1.4608206200818785e+00 3.5071673891091439e+00 4.3120049506561058e+00 1 -1 -1
6009 2003 3 4.0999999999999998e-01 3.4673430649291856e+00 7.2797528045396067e+00 9.8736217735617391e+00 1 -1 0
3336 1112 3 4.0999999999999998e-01 9.4470968114444851e+00 9.6482484945279090e+00 8.3921483772694412e+00 0 0 -2
6248 2083 4 -8.1999999999999995e-01 5.2385056638686427e+00 4.4102471196566819e+00 9.4936567161713050e+00 -1 -1 2
6249 2083 3 4.0999999999999998e-01 5.4309561891117388e+00 3.4280087647080082e+00 9.7491999588389096e+00 -1 -1 2
3960 1320 3 4.0999999999999998e-01 3.0113406084576937e+00 1.0034441459620888e+01 8.1476507482086582e+00 0 2 1
2340 780 3 4.0999999999999998e-01 9.6606983397799464e+00 2.1487881229217470e-01 6.9418783077068342e+00 2 2 -1
3335 1112 4 -8.1999999999999995e-01 9.9149659904267473e+00 1.0574096866856481e+01 8.2436731348136707e+00 0 0 -2
1422 474 3 4.0999999999999998e-01 9.6366667806820807e+00 1.2697567887869488e+00 3.1239835689793045e+00 1 1 1
5274 1758 3 4.0999999999999998e-01 5.8605013301946851e-01 4.4907808722180569e+00 9.6762796461977754e+00 2 -2 1
7220 2407 4 -8.1999999999999995e-01 1.1397832608039717e+00 9.5926061666819979e+00 9.9127095200538307e+00 0 -3 -2
7243 2415 3 4.0999999999999998e-01 5.1343622058479568e+00 1.0189564351172121e+01 4.9216810442247931e+00 2 0 -3
1862 621 4 -8.1999999999999995e-01 9.8790688500175727e-01 7.1994806483430747e+00 4.3569196143148412e+00 -4 0 1
3818 1273 4 -8.1999999999999995e-01 1.0383941922341524e+01 9.5388976571264674e+00 3.6062400278596001e+00 -1 -1 1
6689 2230 4 -8.1999999999999995e-01 2.6058332976901903e+00 1.5051401363508901e+00 8.1615287395523584e-01 4 1 -4
7219 2407 3 4.0999999999999998e-01 1.4848500166589882e+00 1.0504649658768498e+01 1.0275723291329664e+01 0 -3 -2
6240 2080 3 4.0999999999999998e-01 7.3575395898751612e+00 2.0074250864373524e+00 1.4304274859353239e+01 6 0 -1
1343 448 4 -8.1999999999999995e-01 7.4408041340110538e+00 7.2182335180991064e+00 1.5124219696979612e+01 5 -2 2
2892 964 3 4.0999999999999998e-01 3.2003855351673285e+00 6.5270212174410256e+00 1.2091188247890132e+01 -1 -1 1
5826 1942 3 4.0999999999999998e-01 3.7872332031635789e+00 1.6817204237625332e+00 1.9520537318068058e+01 -2 0 1
1260 420 3 4.0999999999999998e-01 7.3038876308830272e+00 7.0048879447234853e+00 1.9673954059900755e+01 5 3 -1
2890 964 3 4.0999999999999998e-01 1.9298036842739674e+00 5.9341941363681352e+00 1.1222512754147505e+01 -1 -1 1
4139 1380 4 -8.1999999999999995e-01 8.3902464630438960e+00 2.3942860042583072e+00 1.8126759468128707e+01 6 -1 -1
1342 448 3 4.0999999999999998e-01 8.0607469854899048e+00 6.9203151484093031e+00 1.5918802378821109e+01 5 -2 2
294 98 3 4.0999999999999998e-01 3.0896519842226837e+00 6.2860769857707499e+00 2.0427663007156845e+01 0 0 -4
3964 1322 3 4.0999999999999998e-01 6.3404081761461306e+00 5.1732831007616369e+00 1.9797082481757620e+01 0 0 -2
357 119 3 4.0999999999999998e-01 4.0536604818122424e+00 6.4344989197432669e+00 1.8336896518252953e+01 -1 1 4
7103 2368 4 -8.1999999999999995e-01 9.1958878317024997e+00 8.1276113414772091e+00 1.3337852620197749e+01 -1 -2 6
3932 1311 4 -8.1999999999999995e-01 9.4799109632006378e+00 3.3262732807357644e+00 1.2148797396607911e+01 2 3 -1
5824 1942 3 4.0999999999999998e-01 3.1505505039587463e+00 2.9601029445136446e+00 1.8634197967504726e+01 -2 0 1
6921 2307 3 4.0999999999999998e-01 5.9369192345146415e-01 3.3476665296752732e+00 1.2071641104593157e+01 2 -1 0
5273 1758 4 -8.1999999999999995e-01 3.2766010066665363e-01 4.1431003402835405e+00 1.0612121539435122e+01 2 -2 1
7104 2368 3 4.0999999999999998e-01 9.4730118760258257e+00 7.1823088768759122e+00 1.2935637685932813e+01 -1 -2 6
4717 1573 3 4.0999999999999998e-01 1.5578583334696734e+00 3.5583509350361533e+00 1.6812071976236499e+01 -2 4 2
3247 1083 3 4.0999999999999998e-01 9.6279463084767176e+00 7.5746382741393568e+00 1.9834639237981055e+01 0 0 4
7325 2442 4 -8.1999999999999995e-01 6.1617617006841900e+00 3.9214499888856871e+00 1.9007803542145577e+01 2 1 -1
1073 358 4 -8.1999999999999995e-01 5.7446746480118680e+00 9.5722005935403658e+00 1.8796467702467918e+01 -1 -2 -5
2224 742 3 4.0999999999999998e-01 3.4457737964418103e+00 9.4303343716155397e-01 1.2334534824807127e+01 0 6 4
513 171 3 4.0999999999999998e-01 3.1668741517337544e+00 3.2986550253865135e+00 1.4953483755665353e+01 -3 3 1
292 98 3 4.0999999999999998e-01 2.8555569459564234e+00 7.7929153008765253e+00 1.9981054178353986e+01 0 0 -4
4718 1573 4 -8.1999999999999995e-01 1.8152196829354050e+00 3.1108172439679564e+00 1.7720589251265174e+01 -2 4 2
1211 404 4 -8.1999999999999995e-01 7.0261932191065246e-01 1.0450574070877380e+01 1.6653499276972138e+01 -3 0 0
3238 1080 3 4.0999999999999998e-01 2.4309734543704682e+00 1.6833490740369541e+00 1.6932299017397447e+01 2 -2 -2
2200 734 3 4.0999999999999998e-01 1.0980423767907497e+00 6.2768421479001191e+00 1.8073165343977838e+01 4 1 5
2479 827 3 4.0999999999999998e-01 2.7707711561051189e+00 1.0120102555570885e+01 1.9986019794744433e+01 6 0 -1
3237 1079 3 4.0999999999999998e-01 1.0112973768342604e+01 5.6340226750395024e+00 1.7958379632606281e+01 -1 -3 1
5896 1966 3 4.0999999999999998e-01 9.8915896268481198e+00 3.8789918060101827e+00 2.0707542170188042e+01 1 2 -1
6388 2130 3 4.0999999999999998e-01 6.9521848322092934e+00 5.6604799188708448e+00 1.4271729659815749e+01 2 4 -5
6390 2130 3 4.0999999999999998e-01 6.7751637066343697e+00 4.0784491032957817e+00 1.4023702783518265e+01 2 4 -5
356 119 4 -8.1999999999999995e-01 4.6364797704842555e+00 6.1047937243327786e+00 1.7612703820518796e+01 -1 1 4
295 99 3 4.0999999999999998e-01 7.5210256240217621e+00 1.1939917520770982e+00 1.2016512091068604e+01 -1 -2 0
1259 420 4 -8.1999999999999995e-01 8.0245477722817942e+00 7.8068648747154592e+00 1.9607220818014760e+01 5 3 -1
3931 1311 3 4.0999999999999998e-01 9.5895005687238619e+00 4.2928986717323232e+00 1.1853920499933938e+01 2 3 -1
3554 1185 4 -8.1999999999999995e-01 6.7266235580063016e+00 3.4169518846709696e-01 1.7577310236870783e+01 -1 -1 -1
6878 2293 4 -8.1999999999999995e-01 1.8997741035629003e+00 1.0353025228285150e+01 1.3824837598407139e+01 1 0 -5
2225 742 4 -8.1999999999999995e-01 4.3559535735459720e+00 1.4769782666616742e+00 1.2413977353313124e+01 0 6 4
550 184 3 4.0999999999999998e-01 6.3385486317151711e+00 9.2692495605011338e+00 1.1921004201010410e+01 -1 -5 -1
4845 1615 3 4.0999999999999998e-01 3.1857187796267000e-01 3.2879653055563818e+00 2.0552754181368929e+01 3 0 2
1138 380 3 4.0999999999999998e-01 1.9273634079394659e+00 6.6011077829899509e+00 1.3714352952871456e+01 -1 1 3
355 119 3 4.0999999999999998e-01 4.7488782049725682e+00 5.1278010870598152e+00 1.7617003492784900e+01 -1 1 4
4276 1426 3 4.0999999999999998e-01 9.9300867420153149e-01 2.1023626604157936e-01 1.2052570859574455e+01 -4 -3 0
1214 405 4 -8.1999999999999995e-01 1.0155434965188146e+01 1.0343927515481566e+01 1.5663098322854681e+01 1 -1 0
2201 734 4 -8.1999999999999995e-01 6.4704448449939989e-01 5.5011069927899960e+00 1.8560433910720295e+01 4 1 5
3747 1249 3 4.0999999999999998e-01 5.1201672765124755e+00 1.6155692286721421e+00 1.1095730838478783e+01 2 5 1
551 184 4 -8.1999999999999995e-01 7.1819077793977781e+00 8.7893392197868181e+00 1.1565524566225751e+01 -1 -5 -1
5604 1868 3 4.0999999999999998e-01 8.9405771158095391e+00 3.5875585107533317e+00 1.5380972189007773e+01 2 3 4
676 226 3 4.0999999999999998e-01 1.4754318820617573e+00 8.6622278111606636e+00 1.7044026898914332e+01 1 2 2
3364 1122 3 4.0999999999999998e-01 1.4052752411228202e+00 3.6713804534844634e+00 1.4455694728628576e+01 2 4 1
293 98 4 -8.1999999999999995e-01 3.5276013187206794e+00 7.0324541550987476e+00 1.9866217834053572e+01 0 0 -4
3933 1311 3 4.0999999999999998e-01 9.3456685862186522e+00 2.7342758860647352e+00 1.1314547649476532e+01 2 3 -1
5603 1868 4 -8.1999999999999995e-01 9.8772247904370065e+00 3.9045951423530245e+00 1.5158220574110974e+01 2 3 4
5819 1940 4 -8.1999999999999995e-01 4.0286900813647808e+00 1.0371608598681908e+01 1.5426124087631957e+01 3 1 1
2189 730 4 -8.1999999999999995e-01 5.3811577504392902e+00 8.1097292782589712e+00 1.6098616494601472e+01 3 1 -2
7324 2442 3 4.0999999999999998e-01 7.0264742640572537e+00 3.5111693350344249e+00 1.8672575163157511e+01 2 1 -1
6908 2303 4 -8.1999999999999995e-01 4.9491955318203509e+00 6.7332020066830678e+00 1.2427102393648896e+01 4 1 -4
7102 2368 3 4.0999999999999998e-01 1.0013709772802335e+01 8.8065297965757718e+00 1.3215609856719867e+01 -1 -2 6
1139 380 4 -8.1999999999999995e-01 2.2999714901935584e+00 6.9489039896976541e+00 1.4598810999298893e+01 -1 1 3
3365 1122 4 -8.1999999999999995e-01 1.7417290811786657e+00 4.2274105972487481e+00 1.5282644506339862e+01 2 4 1
5818 1940 3 4.0999999999999998e-01 4.6192405718918668e+00 9.5261105385217455e+00 1.5671004276605604e+01 3 1 1
6011 2004 4 -8.1999999999999995e-01 1.6796816880161936e+00 8.8644292820435115e+00 2.0878895610428664e+01 2 -2 2
4719 1573 3 4.0999999999999998e-01 9.2449606952502983e-01 2.7546352048650165e+00 1.8064645994266623e+01 -2 4 2
6238 2080 3 4.0999999999999998e-01 6.8146447540133623e+00 2.3144698010279385e+00 1.5829452883546839e+01 6 0 -1
297 99 3 4.0999999999999998e-01 6.0504142511077097e+00 1.1092984356053035e+00 1.2557542283572806e+01 -1 -2 0
296 99 4 -8.1999999999999995e-01 7.0024900575217837e+00 1.0954735360906074e+00 1.2902531947959702e+01 -1 -2 0
1718 573 4 -8.1999999999999995e-01 1.0014592873815854e+01 6.9400696954450025e-01 2.0836458661600545e+01 0 0 2
1072 358 3 4.0999999999999998e-01 5.4387134223079245e+00 9.2944170715968450e+00 1.7856835321897066e+01 -1 -2 -5
2891 964 4 -8.1999999999999995e-01 2.2827472706757272e+00 6.0554727103001200e+00 1.2168269891245153e+01 -1 -1 1
1074 358 3 4.0999999999999998e-01 4.8890467110129290e+00 9.6368574551874815e+00 1.9285442319257886e+01 -1 -2 -5
552 184 3 4.0999999999999998e-01 7.8947662528384610e+00 8.8096840666885381e+00 1.2250377074748272e+01 -1 -5 -1
6907 2303 3 4.0999999999999998e-01 5.4842529930949837e+00 5.9795130504967329e+00 1.2991055707685645e+01 4 1 -4
6919 2307 3 4.0999999999999998e-01 1.4768827741011821e+00 1.9910957848660966e+00 1.2791799943820752e+01 2 -1 0
6239 2080 4 -8.1999999999999995e-01 7.5552168806207662e+00 2.5569500482840484e+00 1.5194756678334370e+01 6 0 -1
2190 730 3 4.0999999999999998e-01 4.8871806693434365e+00 7.3289180282247806e+00 1.6585768787553921e+01 3 1 -2
1140 380 3 4.0999999999999998e-01 3.3395976266960465e+00 7.0636935437047690e+00 1.4462467548532743e+01 -1 1 3
1258 420 3 4.0999999999999998e-01 7.5386558864285727e+00 8.7668262864352364e+00 1.9501013508485165e+01 5 3 -1
4140 1380 3 4.0999999999999998e-01 7.7654711913936696e+00 1.6944114741578311e+00 1.7730739920778525e+01 6 -1 -1
7326 2442 3 4.0999999999999998e-01 5.4133419435564702e+00 3.2437457071373119e+00 1.9010108867183501e+01 2 1 -1
677 226 4 -8.1999999999999995e-01 1.4958776955460000e+00 7.6478732527843052e+00 1.7035918200905105e+01 1 2 2
3236 1079 4 -8.1999999999999995e-01 9.7118723582339506e+00 5.7974124921117429e+00 1.7033384636137637e+01 -1 -3 1
5898 1966 3 4.0999999999999998e-01 1.0523347933081146e+01 5.2858765805306671e+00 2.0012273479169615e+01 1 2 -1
512 171 4 -8.1999999999999995e-01 4.0448468720324646e+00 3.2765080135939746e+00 1.4379305538964383e+01 -3 3 1
1344 448 3 4.0999999999999998e-01 8.0729676705090547e+00 7.6534883001459182e+00 1.4362290931845960e+01 5 -2 2
2188 730 3 4.0999999999999998e-01 6.3110515036023696e+00 7.9001812791104609e+00 1.5737150448920129e+01 3 1 -2
3235 1079 3 4.0999999999999998e-01 9.8865715946908921e+00 4.9034906681261736e+00 1.6468274398128376e+01 -1 -3 1
678 226 3 4.0999999999999998e-01 1.8527955039071726e+00 7.3867932300666075e+00 1.6081116275118838e+01 1 2 2
2226 742 3 4.0999999999999998e-01 4.3753500472600457e+00 2.1061138286701042e+00 1.3179088562348817e+01 0 6 4
2202 734 3 4.0999999999999998e-01 1.1765649313489390e+00 4.6229112180356982e+00 1.8524565899799764e+01 4 1 5
3965 1322 4 -8.1999999999999995e-01 6.1317336313288289e+00 6.0860393960804808e+00 2.0330263139903167e+01 0 0 -2
3966 1322 3 4.0999999999999998e-01 5.2172038028196921e+00 6.4924219534831193e+00 2.0139694741378477e+01 0 0 -2
5825 1942 4 -8.1999999999999995e-01 3.8629802724178917e+00 2.6200903668806785e+00 1.9341652913008332e+01 -2 0 1
6112 2038 3 4.0999999999999998e-01 1.0428546530821770e+01 7.5642242736171008e+00 1.6803161084210796e+01 3 -2 3
6909 2303 3 4.0999999999999998e-01 5.5945349792299375e+00 7.3137249265063211e+00 1.1972469669626836e+01 4 1 -4
3366 1122 3 4.0999999999999998e-01 1.9478923716445111e+00 5.1974350734882471e+00 1.4974598728296176e+01 2 4 1
4138 1380 3 4.0999999999999998e-01 9.3873672716257524e+00 2.2932760191836730e+00 1.7926984558910725e+01 6 -1 -1
511 171 3 4.0999999999999998e-01 4.3889853146464759e+00 4.1769301867329949e+00 1.4083104844152194e+01 -3 3 1
6389 2130 4 -8.1999999999999995e-01 6.4179984996419499e+00 4.9912071367816662e+00 1.3724998033303430e+01 2 4 -5
6920 2307 4 -8.1999999999999995e-01 9.7239901040127319e-01 2.9006689371669547e+00 1.2949935220616258e+01 2 -1 0
5602 1868 3 4.0999999999999998e-01 9.9586863976682753e+00 3.8920167937574113e+00 1.4126847147315830e+01 2 3 4
3239 1080 4 -8.1999999999999995e-01 3.1259666421329011e+00 9.7063253938696914e-01 1.6925347256541809e+01 2 -2 -2
6010 2004 3 4.0999999999999998e-01 1.2327793709618708e+00 7.9281609790231888e+00 2.0949002116987476e+01 2 -2 2
3605 1202 4 -8.1999999999999995e-01 5.1798238578326732e+00 1.0214158964455507e+01 1.2419378589613345e+01 2 3 -4
7196 2399 4 -8.1999999999999995e-01 1.0247595769485782e+01 6.0704777993484074e+00 1.1707353703253393e+01 0 -2 3
7197 2399 3 4.0999999999999998e-01 1.0055408935535519e+01 5.9557226450106571e+00 1.0759502848331545e+01 0 -2 3
3604 1202 3 4.0999999999999998e-01 4.8107632143420815e+00 1.0067538324745982e+01 1.3374674713832230e+01 2 3 -4
4771 1591 3 4.0999999999999998e-01 4.1304128211195335e-01 9.7079211540838610e+00 1.3698559659067785e+01 2 -2 5
6879 2293 3 4.0999999999999998e-01 2.8152057728963564e+00 1.0219755517602906e+01 1.4279734790783321e+01 1 0 -5
1213 405 3 4.0999999999999998e-01 1.0108571774448674e+01 9.9512341295207101e+00 1.4712085751099245e+01 1 -1 0
3240 1080 3 4.0999999999999998e-01 3.3450781666046154e+00 6.4371760227388186e-01 1.6017444739790854e+01 2 -2 -2
6601 2201 3 4.0999999999999998e-01 3.7991933270475640e+00 4.0928378224647872e+00 2.0967697559218873e+01 -3 -2 1
1212 404 3 4.0999999999999998e-01 7.8657278168889921e-01 1.0514567411455678e+01 1.5623906578009858e+01 -3 0 0
1717 573 3 4.0999999999999998e-01 9.2227177765273876e+00 3.2483084362372294e-01 2.0357079508286116e+01 0 0 2
1291 431 3 4.0999999999999998e-01 7.8903641430040787e+00 2.3054849735192601e-01 1.4004424821418731e+01 0 -1 0
3555 1185 3 4.0999999999999998e-01 6.1427474242623967e+00 2.7688777441708495e-01 1.8395120415532173e+01 -1 -1 -1
5369 1790 4 -8.1999999999999995e-01 3.7278303830459081e-01 6.7134340180508154e+00 2.1612191368631724e+01 -5 1 3
6476 2159 4 -8.1999999999999995e-01 1.0070481213190144e+01 3.0941207066327565e+00 2.9841059980129266e+01 -2 3 -2
1910 637 4 -8.1999999999999995e-01 4.7099678573353847e+00 9.6180665786631643e+00 3.0300253009824534e+01 2 -2 0
6968 2323 4 -8.1999999999999995e-01 8.0909106569451179e+00 1.2468868017490329e+00 2.9775599785537413e+01 -1 -2 2
2285 762 4 -8.1999999999999995e-01 6.4268301091347109e+00 5.3939166089652186e+00 2.2818439666212747e+01 3 2 1
4819 1607 3 4.0999999999999998e-01 3.8712545796661546e+00 7.6270033106961881e+00 2.7314175483668674e+01 3 2 -1
7171 2391 3 4.0999999999999998e-01 9.6904482066296929e+00 2.9896590214481704e+00 2.3002284398613796e+01 2 4 -2
2575 859 3 4.0999999999999998e-01 9.8161247614864156e+00 7.3329182222973621e+00 2.8206060636729131e+01 -2 3 1
4117 1373 3 4.0999999999999998e-01 1.2414418058073440e+00 4.7738556698285199e+00 2.5868358377674561e+01 -1 -4 -3
2284 762 3 4.0999999999999998e-01 6.2360396626683761e+00 5.5738975688002492e+00 2.1790842178321274e+01 3 2 1
7086 2362 3 4.0999999999999998e-01 8.7152341134770577e+00 5.9432413201591707e+00 2.7104941084200302e+01 -1 1 2
573 191 3 4.0999999999999998e-01 5.6939821294007080e+00 6.8228962978805754e+00 2.6644401951755039e+01 -3 -2 -1
7084 2362 3 4.0999999999999998e-01 1.0203201168303826e+01 5.2103470452306064e+00 2.7038175029355664e+01 -1 1 2
2694 898 3 4.0999999999999998e-01 5.0334787178885012e+00 2.9898049457454499e+00 2.4913761990777054e+01 1 2 -1
6475 2159 3 4.0999999999999998e-01 1.0080446091318247e+01 3.9335580232875991e+00 3.0415752388295580e+01 -2 3 -2
4118 1373 4 -8.1999999999999995e-01 1.9070717228192495e+00 5.5244522249234498e+00 2.6133168636307058e+01 -1 -4 -3
2959 987 3 4.0999999999999998e-01 2.1383752029339909e+00 1.6662857471738748e+00 2.8730606689064896e+01 -1 -4 -1
3872 1291 4 -8.1999999999999995e-01 7.0793221822685979e+00 5.4384861184613200e+00 2.7288195328780763e+01 3 4 2
7173 2391 3 4.0999999999999998e-01 8.1755267988217675e+00 3.4132016310281341e+00 2.2390634943143212e+01 2 4 -2
932 311 4 -8.1999999999999995e-01 6.2362488148769240e+00 2.9583902334505106e+00 2.3755258137295399e+01 -2 4 1
4963 1655 3 4.0999999999999998e-01 5.8785090499338324e+00 4.3767965797256165e+00 3.1086245255114004e+01 2 1 1
1135 379 3 4.0999999999999998e-01 7.8087361858741318e+00 8.7625131967304188e+00 2.8201697001204710e+01 0 0 -3
1904 635 4 -8.1999999999999995e-01 5.1462259546586075e+00 9.2945391363147734e-01 2.2495705412086924e+01 4 2 0
2577 859 3 4.0999999999999998e-01 1.0415181337999586e+01 8.6994167663816615e+00 2.9115880756469700e+01 -2 3 1
264 88 3 4.0999999999999998e-01 2.6753103526303583e+00 5.8394440092420474e+00 2.4781405513740015e+01 -2 -2 -1
1526 509 4 -8.1999999999999995e-01 3.7175990383016746e+00 4.2075072184988374e+00 2.7653078193660804e+01 2 -1 -1
6393 2131 3 4.0999999999999998e-01 5.0968497393873449e+00 9.3927206635779026e+00 2.6145908693413613e+01 2 -3 2
2627 876 4 -8.1999999999999995e-01 2.5971498143871137e+00 1.6663455328639925e+00 2.3034712068886734e+01 2 2 -2
4593 1531 3 4.0999999999999998e-01 4.4999420056005155e+00 7.1070249910173837e+00 2.3813756854727874e+01 4 -2 1
571 191 3 4.0999999999999998e-01 5.5568948341297606e+00 7.7524215532824412e+00 2.5327430304092061e+01 -3 -2 -1
572 191 4 -8.1999999999999995e-01 5.3906740026691145e+00 7.7749152518172764e+00 2.6371754546245789e+01 -3 -2 -1